 Entering Gaussian System, Link 0=g03
 Input=ch3cl_br.com
 Output=ch3cl_br.log
 Initial command:
 /afs/physto.se/common/scratch/odelius/x86_64//g03root/g03/l1.exe /data3/tk/scrg03/Gau-19646.inp -scrdir=/data3/tk/scrg03/
 Entering Link 1 = /afs/physto.se/common/scratch/odelius/x86_64//g03root/g03/l1.exe PID=     19648.
  
 Copyright (c) 1988,1990,1992,1993,1995,1998,2003, Gaussian, Inc.
                  All Rights Reserved.
  
 This is the Gaussian(R) 03 program.  It is based on the
 the Gaussian(R) 98 system (copyright 1998, Gaussian, Inc.),
 the Gaussian(R) 94 system (copyright 1995, Gaussian, Inc.),
 the Gaussian 92(TM) system (copyright 1992, Gaussian, Inc.),
 the Gaussian 90(TM) system (copyright 1990, Gaussian, Inc.),
 the Gaussian 88(TM) system (copyright 1988, Gaussian, Inc.),
 the Gaussian 86(TM) system (copyright 1986, Carnegie Mellon
 University), and the Gaussian 82(TM) system (copyright 1983,
 Carnegie Mellon University). Gaussian is a federally registered
 trademark of Gaussian, Inc.
  
 This software contains proprietary and confidential information,
 including trade secrets, belonging to Gaussian, Inc.
  
 This software is provided under written license and may be
 used, copied, transmitted, or stored only in accord with that
 written license.
  
 The following legend is applicable only to US Government
 contracts under DFARS:
  
                    RESTRICTED RIGHTS LEGEND
  
 Use, duplication or disclosure by the US Government is subject
 to restrictions as set forth in subparagraph (c)(1)(ii) of the
 Rights in Technical Data and Computer Software clause at DFARS
 252.227-7013.
  
 Gaussian, Inc.
 Carnegie Office Park, Building 6, Pittsburgh, PA 15106 USA
  
 The following legend is applicable only to US Government
 contracts under FAR:
  
                    RESTRICTED RIGHTS LEGEND
  
 Use, reproduction and disclosure by the US Government is subject
 to restrictions as set forth in subparagraph (c) of the
 Commercial Computer Software - Restricted Rights clause at FAR
 52.227-19.
  
 Gaussian, Inc.
 Carnegie Office Park, Building 6, Pittsburgh, PA 15106 USA
  
  
 ---------------------------------------------------------------
 Warning -- This program may not be used in any manner that
 competes with the business of Gaussian, Inc. or will provide
 assistance to any competitor of Gaussian, Inc.  The licensee
 of this program is prohibited from giving any competitor of
 Gaussian, Inc. access to this program.  By using this program,
 the user acknowledges that Gaussian, Inc. is engaged in the
 business of creating and licensing software in the field of
 computational chemistry and represents and warrants to the
 licensee that it is not a competitor of Gaussian, Inc. and that
 it will not use this program in any manner prohibited above.
 ---------------------------------------------------------------
  

 Cite this work as:
 Gaussian 03, Revision B.04,
 M. J. Frisch, G. W. Trucks, H. B. Schlegel, G. E. Scuseria, 
 M. A. Robb, J. R. Cheeseman, J. A. Montgomery, Jr., T. Vreven, 
 K. N. Kudin, J. C. Burant, J. M. Millam, S. S. Iyengar, J. Tomasi, 
 V. Barone, B. Mennucci, M. Cossi, G. Scalmani, N. Rega, 
 G. A. Petersson, H. Nakatsuji, M. Hada, M. Ehara, K. Toyota, 
 R. Fukuda, J. Hasegawa, M. Ishida, T. Nakajima, Y. Honda, O. Kitao, 
 H. Nakai, M. Klene, X. Li, J. E. Knox, H. P. Hratchian, J. B. Cross, 
 C. Adamo, J. Jaramillo, R. Gomperts, R. E. Stratmann, O. Yazyev, 
 A. J. Austin, R. Cammi, C. Pomelli, J. W. Ochterski, P. Y. Ayala, 
 K. Morokuma, G. A. Voth, P. Salvador, J. J. Dannenberg, 
 V. G. Zakrzewski, S. Dapprich, A. D. Daniels, M. C. Strain, 
 O. Farkas, D. K. Malick, A. D. Rabuck, K. Raghavachari, 
 J. B. Foresman, J. V. Ortiz, Q. Cui, A. G. Baboul, S. Clifford, 
 J. Cioslowski, B. B. Stefanov, G. Liu, A. Liashenko, P. Piskorz, 
 I. Komaromi, R. L. Martin, D. J. Fox, T. Keith, M. A. Al-Laham, 
 C. Y. Peng, A. Nanayakkara, M. Challacombe, P. M. W. Gill, 
 B. Johnson, W. Chen, M. W. Wong, C. Gonzalez, and J. A. Pople, 
 Gaussian, Inc., Pittsburgh PA, 2003.
 
 *********************************************
 Gaussian 03:  x86-Linux-G03RevB.04 2-Jun-2003
                  14-Dec-2012 
 *********************************************
 %mem=330MW
 %nprocshared=4
 Will use up to    4 processors via shared memory.
 ----------------------------
 #p opt freq b3lyp 6-31G(d,p)
 ----------------------------
 1/14=-1,18=20,26=3,38=1/1,3;
 2/9=110,17=6,18=5,40=1/2;
 3/5=1,6=6,7=101,11=2,16=1,25=1,30=1,74=-5/1,2,3;
 4//1;
 5/5=2,38=5/2;
 6/7=2,8=2,9=2,10=2,28=1/1;
 7//1,2,3,16;
 1/14=-1,18=20/3(1);
 99//99;
 2/9=110/2;
 3/5=1,6=6,7=101,11=2,16=1,25=1,30=1,74=-5/1,2,3;
 4/5=5,16=3/1;
 5/5=2,38=5/2;
 7//1,2,3,16;
 1/14=-1,18=20/3(-5);
 2/9=110/2;
 6/7=2,8=2,9=2,10=2,19=2,28=1/1;
 99/9=1/99;
 Leave Link    1 at Fri Dec 14 16:25:37 2012, MaxMem=  346030080 cpu:       0.2
 (Enter /afs/physto.se/common/scratch/odelius/x86_64//g03root/g03/l101.exe)
 -----------------------------------
 Reactant. CONTINUING FROM: reac.log
 -----------------------------------
 Symbolic Z-matrix:
 Charge = -1 Multiplicity = 1
 C                     0.        0.31923   0. 
 H                    -1.04255   0.60874   0. 
 H                     0.51254   0.63803   0.89812 
 H                     0.51254   0.63803  -0.89812 
 Cl                    0.03966  -1.72683   0. 
 Br                   -0.08062   3.33169   0. 
 
                    Isotopes and Nuclear Properties:

  Atom         1           2           3           4           5           6
 IAtWgt=          12           1           1           1          35          79
 AtmWgt=  12.0000000   1.0078250   1.0078250   1.0078250  34.9688527  78.9183361
 IAtSpn=           0           1           1           1           3           3
 AtZEff=   0.0000000   0.0000000   0.0000000   0.0000000   0.0000000   0.0000000
 AtQMom=   0.0000000   0.0000000   0.0000000   0.0000000  -8.2490000  29.3000000
 AtGFac=   0.0000000   2.7928460   2.7928460   2.7928460   0.8218740   2.1063990
 Leave Link  101 at Fri Dec 14 16:25:39 2012, MaxMem=  346030080 cpu:       0.1
 (Enter /afs/physto.se/common/scratch/odelius/x86_64//g03root/g03/l103.exe)

 GradGradGradGradGradGradGradGradGradGradGradGradGradGradGradGradGradGrad
 Berny optimization.
 Initialization pass.
                           ----------------------------
                           !    Initial Parameters    !
                           ! (Angstroms and Degrees)  !
 --------------------------                            --------------------------
 ! Name  Definition              Value          Derivative Info.                !
 --------------------------------------------------------------------------------
 ! R1    R(1,2)                  1.082          estimate D2E/DX2                !
 ! R2    R(1,3)                  1.0821         estimate D2E/DX2                !
 ! R3    R(1,4)                  1.0821         estimate D2E/DX2                !
 ! R4    R(1,5)                  2.0464         estimate D2E/DX2                !
 ! R5    R(1,6)                  3.0135         estimate D2E/DX2                !
 ! R6    R(2,6)                  2.8879         estimate D2E/DX2                !
 ! R7    R(3,6)                  2.9007         estimate D2E/DX2                !
 ! R8    R(4,6)                  2.9007         estimate D2E/DX2                !
 ! A1    A(2,1,3)              112.1822         estimate D2E/DX2                !
 ! A2    A(2,1,4)              112.1822         estimate D2E/DX2                !
 ! A3    A(2,1,5)              106.63           estimate D2E/DX2                !
 ! A4    A(3,1,4)              112.1921         estimate D2E/DX2                !
 ! A5    A(3,1,5)              106.5816         estimate D2E/DX2                !
 ! A6    A(4,1,5)              106.5816         estimate D2E/DX2                !
 ! A7    A(2,6,3)               36.1505         estimate D2E/DX2                !
 ! A8    A(2,6,4)               36.1505         estimate D2E/DX2                !
 ! A9    A(3,6,4)               36.0723         estimate D2E/DX2                !
 ! A10   L(5,1,6,-3,-1)        179.5774         estimate D2E/DX2                !
 ! A11   L(5,1,6,-1,-2)        180.0            estimate D2E/DX2                !
 --------------------------------------------------------------------------------
 Trust Radius=3.00D-01 FncErr=1.00D-07 GrdErr=1.00D-06
 Number of steps in this run=  29 maximum allowed number of steps= 100.
 GradGradGradGradGradGradGradGradGradGradGradGradGradGradGradGradGradGrad

 Leave Link  103 at Fri Dec 14 16:25:40 2012, MaxMem=  346030080 cpu:       0.0
 (Enter /afs/physto.se/common/scratch/odelius/x86_64//g03root/g03/l202.exe)
                          Input orientation:                          
 ---------------------------------------------------------------------
 Center     Atomic     Atomic              Coordinates (Angstroms)
 Number     Number      Type              X           Y           Z
 ---------------------------------------------------------------------
    1          6             0        0.000000    0.319226    0.000000
    2          1             0       -1.042552    0.608735    0.000000
    3          1             0        0.512541    0.638030    0.898119
    4          1             0        0.512541    0.638030   -0.898119
    5         17             0        0.039659   -1.726827    0.000000
    6         35             0       -0.080623    3.331693    0.000000
 ---------------------------------------------------------------------
                    Distance matrix (angstroms):
                    1          2          3          4          5
     1  C    0.000000
     2  H    1.082003   0.000000
     3  H    1.082105   1.796048   0.000000
     4  H    1.082105   1.796048   1.796238   0.000000
     5  Cl   2.046437   2.574108   2.573477   2.573477   0.000000
     6  Br   3.013546   2.887873   2.900738   2.900738   5.059950
                    6
     6  Br   0.000000
 This structure is nearly, but not quite of a higher symmetry.
 Consider Symm=Loose if the higher symmetry is desired.
 Stoichiometry    CH3BrCl(1-)
 Framework group  CS[SG(CHBrCl),X(H2)]
 Deg. of freedom     8
 Full point group                 CS      NOp   2
 Largest Abelian subgroup         CS      NOp   2
 Largest concise Abelian subgroup CS      NOp   2
                         Standard orientation:                         
 ---------------------------------------------------------------------
 Center     Atomic     Atomic              Coordinates (Angstroms)
 Number     Number      Type              X           Y           Z
 ---------------------------------------------------------------------
    1          6             0        0.000000    1.173988    0.000000
    2          1             0        1.033323    0.853093    0.000000
    3          1             0       -0.521945    0.870826    0.898119
    4          1             0       -0.521945    0.870826   -0.898119
    5         17             0        0.022217    3.220305    0.000000
    6         35             0       -0.010489   -1.839539    0.000000
 ---------------------------------------------------------------------
 Rotational constants (GHZ):    155.3901162      0.7796748      0.7796741
 Leave Link  202 at Fri Dec 14 16:25:42 2012, MaxMem=  346030080 cpu:       0.1
 (Enter /afs/physto.se/common/scratch/odelius/x86_64//g03root/g03/l301.exe)
 Standard basis: 6-31G(d,p) (6D, 7F)
 There are    56 symmetry adapted basis functions of A'  symmetry.
 There are    23 symmetry adapted basis functions of A"  symmetry.
 Integral buffers will be    262144 words long.
 Raffenetti 2 integral format.
 Two-electron integral symmetry is turned on.
    79 basis functions,   184 primitive gaussians,    79 cartesian basis functions
    31 alpha electrons       31 beta electrons
       nuclear repulsion energy       164.8337144280 Hartrees.
 IExCor= 402 DFT=T Ex=B+HF Corr=LYP ExCW=0 ScaHFX=  0.200000
 ScaDFX=  0.800000  0.720000  1.000000  0.810000
 IRadAn=      0 IRanWt=     -1 IRanGd=            0 ICorTp=0
 NAtoms=    6 NActive=    6 NUniq=    5 SFac= 1.58D+00 NAtFMM=   60 Big=F
 Leave Link  301 at Fri Dec 14 16:25:43 2012, MaxMem=  346030080 cpu:       0.0
 (Enter /afs/physto.se/common/scratch/odelius/x86_64//g03root/g03/l302.exe)
 NPDir=0 NMtPBC=     1 NCelOv=     1 NCel=       1 NClECP=     1 NCelD=      1
         NCelK=      1 NCelE2=     1 NClLst=     1 CellRange=     0.0.
 One-electron integrals computed using PRISM.
 One-electron integral symmetry used in STVInt
 NBasis=    79 RedAO= T  NBF=    56    23
 NBsUse=    79 1.00D-06 NBFU=    56    23
 Precomputing XC quadrature grid using
 IXCGrd= 2 IRadAn=           0 IRanWt=          -1 IRanGd=           0.
 NRdTot=     368 NPtTot=       50234 NUsed=       51903 NTot=       51919
 NSgBfM=    79    79    79    79.
 Leave Link  302 at Fri Dec 14 16:25:45 2012, MaxMem=  346030080 cpu:       0.8
 (Enter /afs/physto.se/common/scratch/odelius/x86_64//g03root/g03/l303.exe)
 DipDrv:  MaxL=1.
 Leave Link  303 at Fri Dec 14 16:25:46 2012, MaxMem=  346030080 cpu:       0.0
 (Enter /afs/physto.se/common/scratch/odelius/x86_64//g03root/g03/l401.exe)
 Harris functional with IExCor=  402 diagonalized for initial guess.
 ExpMin= 1.43D-01 ExpMax= 5.74D+05 ExpMxC= 5.74D+03 IAcc=2 IRadAn=         4 AccDes= 0.00D+00
 HarFok:  IExCor= 402 AccDes= 0.00D+00 IRadAn=         4 IDoV=1
 ScaDFX=  1.000000  1.000000  1.000000  1.000000
 Harris En= -3072.07872339912    
 Initial guess orbital symmetries:
       Occupied  (A') (A') (A') (A') (A') (A") (A') (A') (A') (A')
                 (A") (A') (A') (A") (A') (A") (A') (A') (A") (A')
                 (A') (A') (A') (A') (A") (A') (A') (A") (A') (A')
                 (A")
       Virtual   (A') (A') (A') (A") (A') (A') (A') (A") (A') (A")
                 (A') (A') (A") (A') (A') (A") (A') (A') (A") (A')
                 (A") (A') (A") (A') (A") (A') (A') (A') (A') (A")
                 (A') (A') (A') (A") (A') (A") (A') (A") (A') (A')
                 (A") (A') (A") (A') (A') (A') (A') (A')
 The electronic state of the initial guess is 1-A'.
 Leave Link  401 at Fri Dec 14 16:25:48 2012, MaxMem=  346030080 cpu:       0.7
 (Enter /afs/physto.se/common/scratch/odelius/x86_64//g03root/g03/l502.exe)
 Closed shell SCF:
 Requested convergence on RMS density matrix=1.00D-08 within 128 cycles.
 Requested convergence on MAX density matrix=1.00D-06.
 Requested convergence on             energy=1.00D-06.
 No special actions if energy rises.
 Using DIIS extrapolation, IDIIS=  1040.
 Integral symmetry usage will be decided dynamically.
        51902 words used for storage of precomputed grid.
 Keep R1 integrals in memory in canonical form, NReq=     5767403.
 IEnd=     90208 IEndB=     90208 NGot= 346030080 MDV= 340968439
 LenX= 340968439
 Symmetry not used in FoFDir.
 MinBra= 0 MaxBra= 2 Meth= 1.
 IRaf=       0 NMat=   1 IRICut=       1 DoRegI=T DoRafI=F ISym2E= 0 JSym2E=0.
 Integral accuracy reduced to 1.0D-05 until final iterations.

 Cycle   1  Pass 0  IDiag  1:
 E= -3071.80348737243    
 DIIS: error= 3.06D-02 at cycle   1 NSaved=   1.
 NSaved= 1 IEnMin= 1 EnMin= -3071.80348737243     IErMin= 1 ErrMin= 3.06D-02
 ErrMax= 3.06D-02 EMaxC= 1.00D-01 BMatC= 7.79D-02 BMatP= 7.79D-02
 IDIUse=3 WtCom= 6.94D-01 WtEn= 3.06D-01
 Coeff-Com:  0.100D+01
 Coeff-En:   0.100D+01
 Coeff:      0.100D+01
 Gap=     0.142 Goal=   None    Shift=    0.000
 GapD=    0.142 DampG=1.000 DampE=0.500 DampFc=0.5000 IDamp=-1.
 Damping current iteration by 5.00D-01
 RMSDP=9.75D-03 MaxDP=1.89D-01              OVMax= 2.31D-01

 Cycle   2  Pass 0  IDiag  1:
 E= -3071.84526584607     Delta-E=       -0.041778473639 Rises=F Damp=T
 DIIS: error= 1.36D-02 at cycle   2 NSaved=   2.
 NSaved= 2 IEnMin= 2 EnMin= -3071.84526584607     IErMin= 2 ErrMin= 1.36D-02
 ErrMax= 1.36D-02 EMaxC= 1.00D-01 BMatC= 8.71D-03 BMatP= 7.79D-02
 IDIUse=3 WtCom= 8.64D-01 WtEn= 1.36D-01
 Coeff-Com:  0.987D-02 0.990D+00
 Coeff-En:   0.628D-02 0.994D+00
 Coeff:      0.938D-02 0.991D+00
 Gap=     0.141 Goal=   None    Shift=    0.000
 RMSDP=2.27D-03 MaxDP=4.66D-02 DE=-4.18D-02 OVMax= 1.42D-01

 Cycle   3  Pass 0  IDiag  1:
 E= -3071.88718639335     Delta-E=       -0.041920547280 Rises=F Damp=F
 DIIS: error= 5.20D-03 at cycle   3 NSaved=   3.
 NSaved= 3 IEnMin= 3 EnMin= -3071.88718639335     IErMin= 3 ErrMin= 5.20D-03
 ErrMax= 5.20D-03 EMaxC= 1.00D-01 BMatC= 3.29D-03 BMatP= 8.71D-03
 IDIUse=3 WtCom= 9.48D-01 WtEn= 5.20D-02
 Coeff-Com: -0.681D-01 0.386D+00 0.682D+00
 Coeff-En:   0.000D+00 0.000D+00 0.100D+01
 Coeff:     -0.646D-01 0.366D+00 0.699D+00
 Gap=     0.163 Goal=   None    Shift=    0.000
 RMSDP=1.39D-03 MaxDP=3.05D-02 DE=-4.19D-02 OVMax= 4.24D-02

 Cycle   4  Pass 0  IDiag  1:
 E= -3071.89013898114     Delta-E=       -0.002952587792 Rises=F Damp=F
 DIIS: error= 2.23D-03 at cycle   4 NSaved=   4.
 NSaved= 4 IEnMin= 4 EnMin= -3071.89013898114     IErMin= 4 ErrMin= 2.23D-03
 ErrMax= 2.23D-03 EMaxC= 1.00D-01 BMatC= 7.80D-04 BMatP= 3.29D-03
 IDIUse=3 WtCom= 9.78D-01 WtEn= 2.23D-02
 Coeff-Com: -0.154D-01 0.905D-01 0.357D+00 0.568D+00
 Coeff-En:   0.000D+00 0.000D+00 0.194D+00 0.806D+00
 Coeff:     -0.151D-01 0.885D-01 0.354D+00 0.573D+00
 Gap=     0.156 Goal=   None    Shift=    0.000
 RMSDP=5.16D-04 MaxDP=8.21D-03 DE=-2.95D-03 OVMax= 1.25D-02

 Cycle   5  Pass 0  IDiag  1:
 E= -3071.89101816841     Delta-E=       -0.000879187268 Rises=F Damp=F
 DIIS: error= 2.44D-04 at cycle   5 NSaved=   5.
 NSaved= 5 IEnMin= 5 EnMin= -3071.89101816841     IErMin= 5 ErrMin= 2.44D-04
 ErrMax= 2.44D-04 EMaxC= 1.00D-01 BMatC= 6.12D-06 BMatP= 7.80D-04
 IDIUse=3 WtCom= 9.98D-01 WtEn= 2.44D-03
 Coeff-Com: -0.279D-02 0.129D-01 0.912D-01 0.167D+00 0.732D+00
 Coeff-En:   0.000D+00 0.000D+00 0.000D+00 0.000D+00 0.100D+01
 Coeff:     -0.279D-02 0.129D-01 0.910D-01 0.166D+00 0.732D+00
 Gap=     0.158 Goal=   None    Shift=    0.000
 RMSDP=8.25D-05 MaxDP=1.27D-03 DE=-8.79D-04 OVMax= 2.72D-03

 Cycle   6  Pass 0  IDiag  1:
 E= -3071.89102322384     Delta-E=       -0.000005055429 Rises=F Damp=F
 DIIS: error= 9.88D-05 at cycle   6 NSaved=   6.
 NSaved= 6 IEnMin= 6 EnMin= -3071.89102322384     IErMin= 6 ErrMin= 9.88D-05
 ErrMax= 9.88D-05 EMaxC= 1.00D-01 BMatC= 1.33D-06 BMatP= 6.12D-06
 IDIUse=1 WtCom= 1.00D+00 WtEn= 0.00D+00
 Coeff-Com: -0.265D-03 0.542D-03 0.187D-01 0.349D-01 0.370D+00 0.576D+00
 Coeff:     -0.265D-03 0.542D-03 0.187D-01 0.349D-01 0.370D+00 0.576D+00
 Gap=     0.157 Goal=   None    Shift=    0.000
 RMSDP=3.04D-05 MaxDP=5.17D-04 DE=-5.06D-06 OVMax= 1.04D-03

 Cycle   7  Pass 0  IDiag  1:
 E= -3071.89102509651     Delta-E=       -0.000001872671 Rises=F Damp=F
 DIIS: error= 2.10D-05 at cycle   7 NSaved=   7.
 NSaved= 7 IEnMin= 7 EnMin= -3071.89102509651     IErMin= 7 ErrMin= 2.10D-05
 ErrMax= 2.10D-05 EMaxC= 1.00D-01 BMatC= 3.09D-08 BMatP= 1.33D-06
 IDIUse=1 WtCom= 1.00D+00 WtEn= 0.00D+00
 Coeff-Com:  0.726D-04-0.539D-03 0.124D-02 0.615D-03 0.822D-01 0.191D+00
 Coeff-Com:  0.725D+00
 Coeff:      0.726D-04-0.539D-03 0.124D-02 0.615D-03 0.822D-01 0.191D+00
 Coeff:      0.725D+00
 Gap=     0.157 Goal=   None    Shift=    0.000
 RMSDP=3.11D-06 MaxDP=7.37D-05 DE=-1.87D-06 OVMax= 6.26D-05

 Initial convergence to 1.0D-05 achieved.  Increase integral accuracy.
 Cycle   8  Pass 1  IDiag  1:
 E= -3071.89202082835     Delta-E=       -0.000995731840 Rises=F Damp=F
 DIIS: error= 1.92D-04 at cycle   1 NSaved=   1.
 NSaved= 1 IEnMin= 1 EnMin= -3071.89202082835     IErMin= 1 ErrMin= 1.92D-04
 ErrMax= 1.92D-04 EMaxC= 1.00D-01 BMatC= 5.88D-07 BMatP= 5.88D-07
 IDIUse=3 WtCom= 9.98D-01 WtEn= 1.92D-03
 Coeff-Com:  0.100D+01
 Coeff-En:   0.100D+01
 Coeff:      0.100D+01
 Gap=     0.157 Goal=   None    Shift=    0.000
 RMSDP=3.11D-06 MaxDP=7.37D-05 DE=-9.96D-04 OVMax= 2.62D-04

 Cycle   9  Pass 1  IDiag  1:
 E= -3071.89202108901     Delta-E=       -0.000000260661 Rises=F Damp=F
 DIIS: error= 1.81D-05 at cycle   2 NSaved=   2.
 NSaved= 2 IEnMin= 2 EnMin= -3071.89202108901     IErMin= 2 ErrMin= 1.81D-05
 ErrMax= 1.81D-05 EMaxC= 1.00D-01 BMatC= 2.05D-08 BMatP= 5.88D-07
 IDIUse=1 WtCom= 1.00D+00 WtEn= 0.00D+00
 Coeff-Com:  0.524D-01 0.948D+00
 Coeff:      0.524D-01 0.948D+00
 Gap=     0.157 Goal=   None    Shift=    0.000
 RMSDP=7.02D-06 MaxDP=1.39D-04 DE=-2.61D-07 OVMax= 1.97D-04

 Cycle  10  Pass 1  IDiag  1:
 E= -3071.89202109106     Delta-E=       -0.000000002047 Rises=F Damp=F
 DIIS: error= 1.62D-05 at cycle   3 NSaved=   3.
 NSaved= 3 IEnMin= 3 EnMin= -3071.89202109106     IErMin= 3 ErrMin= 1.62D-05
 ErrMax= 1.62D-05 EMaxC= 1.00D-01 BMatC= 1.90D-08 BMatP= 2.05D-08
 IDIUse=1 WtCom= 1.00D+00 WtEn= 0.00D+00
 Coeff-Com: -0.236D-02 0.491D+00 0.512D+00
 Coeff:     -0.236D-02 0.491D+00 0.512D+00
 Gap=     0.157 Goal=   None    Shift=    0.000
 RMSDP=3.64D-06 MaxDP=6.22D-05 DE=-2.05D-09 OVMax= 1.14D-04

 Cycle  11  Pass 1  IDiag  1:
 E= -3071.89202111432     Delta-E=       -0.000000023263 Rises=F Damp=F
 DIIS: error= 1.99D-06 at cycle   4 NSaved=   4.
 NSaved= 4 IEnMin= 4 EnMin= -3071.89202111432     IErMin= 4 ErrMin= 1.99D-06
 ErrMax= 1.99D-06 EMaxC= 1.00D-01 BMatC= 3.31D-10 BMatP= 1.90D-08
 IDIUse=1 WtCom= 1.00D+00 WtEn= 0.00D+00
 Coeff-Com: -0.176D-02 0.205D+00 0.233D+00 0.564D+00
 Coeff:     -0.176D-02 0.205D+00 0.233D+00 0.564D+00
 Gap=     0.157 Goal=   None    Shift=    0.000
 RMSDP=3.80D-07 MaxDP=7.39D-06 DE=-2.33D-08 OVMax= 1.27D-05

 Cycle  12  Pass 1  IDiag  1:
 E= -3071.89202111473     Delta-E=       -0.000000000407 Rises=F Damp=F
 DIIS: error= 4.84D-07 at cycle   5 NSaved=   5.
 NSaved= 5 IEnMin= 5 EnMin= -3071.89202111473     IErMin= 5 ErrMin= 4.84D-07
 ErrMax= 4.84D-07 EMaxC= 1.00D-01 BMatC= 1.18D-11 BMatP= 3.31D-10
 IDIUse=1 WtCom= 1.00D+00 WtEn= 0.00D+00
 Coeff-Com: -0.424D-03 0.202D-01 0.226D-01 0.165D+00 0.792D+00
 Coeff:     -0.424D-03 0.202D-01 0.226D-01 0.165D+00 0.792D+00
 Gap=     0.157 Goal=   None    Shift=    0.000
 RMSDP=7.01D-08 MaxDP=1.17D-06 DE=-4.07D-10 OVMax= 2.52D-06

 Cycle  13  Pass 1  IDiag  1:
 E= -3071.89202111474     Delta-E=       -0.000000000010 Rises=F Damp=F
 DIIS: error= 1.93D-07 at cycle   6 NSaved=   6.
 NSaved= 6 IEnMin= 6 EnMin= -3071.89202111474     IErMin= 6 ErrMin= 1.93D-07
 ErrMax= 1.93D-07 EMaxC= 1.00D-01 BMatC= 4.75D-12 BMatP= 1.18D-11
 IDIUse=1 WtCom= 1.00D+00 WtEn= 0.00D+00
 Coeff-Com: -0.156D-03-0.287D-03-0.958D-03 0.631D-01 0.469D+00 0.470D+00
 Coeff:     -0.156D-03-0.287D-03-0.958D-03 0.631D-01 0.469D+00 0.470D+00
 Gap=     0.157 Goal=   None    Shift=    0.000
 RMSDP=3.40D-08 MaxDP=1.09D-06 DE=-9.55D-12 OVMax= 1.36D-06

 Cycle  14  Pass 1  IDiag  1:
 E= -3071.89202111474     Delta-E=       -0.000000000006 Rises=F Damp=F
 DIIS: error= 1.89D-08 at cycle   7 NSaved=   7.
 NSaved= 7 IEnMin= 7 EnMin= -3071.89202111474     IErMin= 7 ErrMin= 1.89D-08
 ErrMax= 1.89D-08 EMaxC= 1.00D-01 BMatC= 5.23D-14 BMatP= 4.75D-12
 IDIUse=1 WtCom= 1.00D+00 WtEn= 0.00D+00
 Coeff-Com: -0.135D-04-0.199D-02-0.236D-02 0.986D-02 0.928D-01 0.141D+00
 Coeff-Com:  0.761D+00
 Coeff:     -0.135D-04-0.199D-02-0.236D-02 0.986D-02 0.928D-01 0.141D+00
 Coeff:      0.761D+00
 Gap=     0.157 Goal=   None    Shift=    0.000
 RMSDP=4.47D-09 MaxDP=1.04D-07 DE=-5.91D-12 OVMax= 9.20D-08

 SCF Done:  E(RB+HF-LYP) =  -3071.89202111     A.U. after   14 cycles
             Convg  =    0.4465D-08             -V/T =  2.0057
             S**2   =   0.0000
 KE= 3.054380196756D+03 PE=-7.664414848639D+03 EE= 1.373308916340D+03
 Leave Link  502 at Fri Dec 14 16:26:16 2012, MaxMem=  346030080 cpu:      82.1
 (Enter /afs/physto.se/common/scratch/odelius/x86_64//g03root/g03/l601.exe)
 Copying SCF densities to generalized density rwf, ISCF=0 IROHF=0.

 **********************************************************************

            Population analysis using the SCF density.

 **********************************************************************

 Orbital symmetries:
       Occupied  (A') (A') (A') (A') (A') (A") (A') (A') (A') (A')
                 (A') (A") (A') (A') (A") (A') (A") (A') (A') (A")
                 (A') (A') (A') (A") (A') (A') (A") (A') (A') (A')
                 (A")
       Virtual   (A') (A') (A") (A') (A') (A') (A') (A") (A') (A")
                 (A') (A') (A') (A") (A') (A") (A') (A') (A") (A')
                 (A") (A') (A") (A') (A') (A") (A') (A') (A') (A")
                 (A') (A') (A') (A") (A") (A') (A") (A') (A') (A')
                 (A") (A') (A") (A') (A') (A') (A') (A')
 The electronic state is 1-A'.
 Alpha  occ. eigenvalues -- -482.61696-101.37417 -61.57923 -56.09856 -56.09779
 Alpha  occ. eigenvalues --  -56.09779 -10.09351  -9.28890  -8.28984  -7.05160
 Alpha  occ. eigenvalues --   -7.04392  -7.04392  -6.23691  -6.23483  -6.23483
 Alpha  occ. eigenvalues --   -2.35378  -2.35324  -2.35323  -2.35158  -2.35158
 Alpha  occ. eigenvalues --   -0.65163  -0.53377  -0.45899  -0.28418  -0.28406
 Alpha  occ. eigenvalues --   -0.22329  -0.14868  -0.14868  -0.03394  -0.02994
 Alpha  occ. eigenvalues --   -0.02994
 Alpha virt. eigenvalues --    0.12741   0.26371   0.31104   0.31136   0.47507
 Alpha virt. eigenvalues --    0.53179   0.59284   0.59285   0.62618   0.66250
 Alpha virt. eigenvalues --    0.66291   0.66808   0.73192   0.73203   0.73522
 Alpha virt. eigenvalues --    0.73546   0.75767   0.76200   0.76227   0.95390
 Alpha virt. eigenvalues --    1.01662   1.01726   1.05500   1.05524   1.07782
 Alpha virt. eigenvalues --    1.07782   1.11454   1.18074   1.42424   1.57756
 Alpha virt. eigenvalues --    1.57766   1.79144   2.13384   2.16554   2.18221
 Alpha virt. eigenvalues --    2.18240   2.50145   2.50161   2.77077   2.96839
 Alpha virt. eigenvalues --    2.96855   3.33527   3.55898   3.55950   4.38942
 Alpha virt. eigenvalues --    4.50681   8.85419  72.40802
          Condensed to atoms (all electrons):
              1          2          3          4          5          6
     1  C    5.047988   0.382825   0.382716   0.382716   0.107540  -0.002531
     2  H    0.382825   0.518761  -0.026853  -0.026853  -0.027856   0.009975
     3  H    0.382716  -0.026853   0.520321  -0.026915  -0.027902   0.009689
     4  H    0.382716  -0.026853  -0.026915   0.520321  -0.027902   0.009689
     5  Cl   0.107540  -0.027856  -0.027902  -0.027902  17.333825   0.003258
     6  Br  -0.002531   0.009975   0.009689   0.009689   0.003258  35.815594
 Mulliken atomic charges:
              1
     1  C   -0.301253
     2  H    0.170000
     3  H    0.168945
     4  H    0.168945
     5  Cl  -0.360963
     6  Br  -0.845673
 Sum of Mulliken charges=  -1.00000
 Atomic charges with hydrogens summed into heavy atoms:
              1
     1  C    0.206636
     2  H    0.000000
     3  H    0.000000
     4  H    0.000000
     5  Cl  -0.360963
     6  Br  -0.845673
 Sum of Mulliken charges=  -1.00000
 Electronic spatial extent (au):  <R**2>=  1219.2878
 Charge=    -1.0000 electrons
 Dipole moment (field-independent basis, Debye):
    X=    -0.0041    Y=     1.9758    Z=     0.0000  Tot=     1.9758
 Quadrupole moment (field-independent basis, Debye-Ang):
   XX=   -41.4866   YY=   -75.2938   ZZ=   -41.4877
   XY=    -0.2272   XZ=     0.0000   YZ=     0.0000
 Traceless Quadrupole moment (field-independent basis, Debye-Ang):
   XX=    11.2694   YY=   -22.5378   ZZ=    11.2683
   XY=    -0.2272   XZ=     0.0000   YZ=     0.0000
 Octapole moment (field-independent basis, Debye-Ang**2):
  XXX=     0.5541  YYY=   -79.7082  ZZZ=     0.0000  XYY=    -0.3522
  XXY=   -13.4803  XXZ=     0.0000  XZZ=    -0.8873  YZZ=   -13.4583
  YYZ=     0.0000  XYZ=     0.0000
 Hexadecapole moment (field-independent basis, Debye-Ang**3):
 XXXX=   -54.6591 YYYY= -1590.7603 ZZZZ=   -54.6022 XXXY=    -3.4929
 XXXZ=     0.0000 YYYX=    -5.3241 YYYZ=     0.0000 ZZZX=     0.0000
 ZZZY=     0.0000 XXYY=  -241.6062 XXZZ=   -18.2022 YYZZ=  -241.5658
 XXYZ=     0.0000 YYXZ=     0.0000 ZZXY=    -2.0690
 N-N= 1.648337144280D+02 E-N=-7.664414845451D+03  KE= 3.054380196756D+03
 Symmetry A'   KE= 2.630126631270D+03
 Symmetry A"   KE= 4.242535654862D+02
 No NMR shielding tensors so no spin-rotation constants.
 Leave Link  601 at Fri Dec 14 16:26:35 2012, MaxMem=  346030080 cpu:       0.6
 (Enter /afs/physto.se/common/scratch/odelius/x86_64//g03root/g03/l701.exe)
 Compute integral first derivatives.
 ... and contract with generalized density number  0.
 Leave Link  701 at Fri Dec 14 16:26:37 2012, MaxMem=  346030080 cpu:       0.5
 (Enter /afs/physto.se/common/scratch/odelius/x86_64//g03root/g03/l702.exe)
 L702 exits ... SP integral derivatives will be done elsewhere.
 Leave Link  702 at Fri Dec 14 16:26:39 2012, MaxMem=  346030080 cpu:       0.0
 (Enter /afs/physto.se/common/scratch/odelius/x86_64//g03root/g03/l703.exe)
 Compute integral first derivatives, UseDBF=F.
 Integral derivatives from FoFDir, PRISM(SPDF).
 Petite list used in FoFDir.
 MinBra= 0 MaxBra= 2 Meth= 1.
 IRaf=       0 NMat=   1 IRICut=       1 DoRegI=T DoRafI=F ISym2E= 1 JSym2E=1.
 Leave Link  703 at Fri Dec 14 16:26:42 2012, MaxMem=  346030080 cpu:       7.2
 (Enter /afs/physto.se/common/scratch/odelius/x86_64//g03root/g03/l716.exe)
 Dipole        =-1.61087469D-03 7.77356701D-01 4.85794044D-19
 ***** Axes restored to original set *****
 -------------------------------------------------------------------
 Center     Atomic                   Forces (Hartrees/Bohr)
 Number     Number              X              Y              Z
 -------------------------------------------------------------------
    1          6           0.000166057   -0.008606839    0.000000000
    2          1          -0.001434406   -0.004436232    0.000000000
    3          1           0.000875039   -0.004368307    0.001265888
    4          1           0.000875039   -0.004368307   -0.001265888
    5         17          -0.000420737    0.022433299    0.000000000
    6         35          -0.000060992   -0.000653614    0.000000000
 -------------------------------------------------------------------
 Cartesian Forces:  Max     0.022433299 RMS     0.005974968
 Leave Link  716 at Fri Dec 14 16:26:43 2012, MaxMem=  346030080 cpu:       0.0
 (Enter /afs/physto.se/common/scratch/odelius/x86_64//g03root/g03/l103.exe)

 GradGradGradGradGradGradGradGradGradGradGradGradGradGradGradGradGradGrad
 Berny optimization.
 Internal  Forces:  Max     0.022437172 RMS     0.005627267
 Search for a local minimum.
 Step number   1 out of a maximum of  29
 All quantities printed in internal units (Hartrees-Bohrs-Radians)
 Second derivative matrix not updated -- first step.
 The second derivative matrix:
                          R1        R2        R3        R4        R5
           R1           0.35753
           R2           0.00000   0.35741
           R3           0.00000   0.00000   0.35741
           R4           0.00000   0.00000   0.00000   0.13443
           R5           0.00000   0.00000   0.00000   0.00000   0.02304
           R6           0.00000   0.00000   0.00000   0.00000   0.00000
           R7           0.00000   0.00000   0.00000   0.00000   0.00000
           R8           0.00000   0.00000   0.00000   0.00000   0.00000
           A1           0.00000   0.00000   0.00000   0.00000   0.00000
           A2           0.00000   0.00000   0.00000   0.00000   0.00000
           A3           0.00000   0.00000   0.00000   0.00000   0.00000
           A4           0.00000   0.00000   0.00000   0.00000   0.00000
           A5           0.00000   0.00000   0.00000   0.00000   0.00000
           A6           0.00000   0.00000   0.00000   0.00000   0.00000
           A7           0.00000   0.00000   0.00000   0.00000   0.00000
           A8           0.00000   0.00000   0.00000   0.00000   0.00000
           A9           0.00000   0.00000   0.00000   0.00000   0.00000
           A10          0.00000   0.00000   0.00000   0.00000   0.00000
           A11          0.00000   0.00000   0.00000   0.00000   0.00000
                          R6        R7        R8        A1        A2
           R6           0.01623
           R7           0.00000   0.01599
           R8           0.00000   0.00000   0.01599
           A1           0.00000   0.00000   0.00000   0.16000
           A2           0.00000   0.00000   0.00000   0.00000   0.16000
           A3           0.00000   0.00000   0.00000   0.00000   0.00000
           A4           0.00000   0.00000   0.00000   0.00000   0.00000
           A5           0.00000   0.00000   0.00000   0.00000   0.00000
           A6           0.00000   0.00000   0.00000   0.00000   0.00000
           A7           0.00000   0.00000   0.00000   0.00000   0.00000
           A8           0.00000   0.00000   0.00000   0.00000   0.00000
           A9           0.00000   0.00000   0.00000   0.00000   0.00000
           A10          0.00000   0.00000   0.00000   0.00000   0.00000
           A11          0.00000   0.00000   0.00000   0.00000   0.00000
                          A3        A4        A5        A6        A7
           A3           0.16000
           A4           0.00000   0.16000
           A5           0.00000   0.00000   0.16000
           A6           0.00000   0.00000   0.00000   0.16000
           A7           0.00000   0.00000   0.00000   0.00000   0.16000
           A8           0.00000   0.00000   0.00000   0.00000   0.00000
           A9           0.00000   0.00000   0.00000   0.00000   0.00000
           A10          0.00000   0.00000   0.00000   0.00000   0.00000
           A11          0.00000   0.00000   0.00000   0.00000   0.00000
                          A8        A9        A10       A11
           A8           0.16000
           A9           0.00000   0.16000
           A10          0.00000   0.00000   0.25000
           A11          0.00000   0.00000   0.00000   0.25000
     Eigenvalues ---    0.01928   0.03276   0.03280   0.10598   0.13443
     Eigenvalues ---    0.16000   0.16000   0.19703   0.19705   0.33968
     Eigenvalues ---    0.35267   0.352781000.000001000.000001000.00000
     Eigenvalues --- 1000.000001000.000001000.000001000.00000
 RFO step:  Lambda=-4.51205720D-03.
 Linear search not attempted -- first point.
 Iteration  1 RMS(Cart)=  0.04539406 RMS(Int)=  0.00057646
 Iteration  2 RMS(Cart)=  0.00034792 RMS(Int)=  0.00039397
 Iteration  3 RMS(Cart)=  0.00000017 RMS(Int)=  0.00039397
 Variable       Old X    -DE/DX   Delta X   Delta X   Delta X     New X
                                 (Linear)    (Quad)   (Total)
    R1        2.04469  -0.00005   0.00000  -0.00007  -0.00001   2.04468
    R2        2.04488  -0.00009   0.00000  -0.00014  -0.00008   2.04480
    R3        2.04488  -0.00009   0.00000  -0.00014  -0.00008   2.04480
    R4        3.86721  -0.02244   0.00000  -0.16148  -0.16148   3.70572
    R5        5.69478  -0.00540   0.00000  -0.04885  -0.04936   5.64541
    R6        5.45729   0.00171   0.00000   0.01492   0.01508   5.47237
    R7        5.48160   0.00176   0.00000   0.01622   0.01638   5.49798
    R8        5.48160   0.00176   0.00000   0.01622   0.01638   5.49798
    A1        1.95795   0.00298   0.00000   0.02693   0.02610   1.98405
    A2        1.95795   0.00298   0.00000   0.02693   0.02610   1.98405
    A3        1.86104  -0.00337   0.00000  -0.03012  -0.03047   1.83058
    A4        1.95812   0.00290   0.00000   0.02628   0.02545   1.98358
    A5        1.86020  -0.00331   0.00000  -0.03012  -0.03046   1.82974
    A6        1.86020  -0.00331   0.00000  -0.03012  -0.03046   1.82974
    A7        0.63094   0.00042   0.00000   0.00401   0.00377   0.63471
    A8        0.63094   0.00042   0.00000   0.00401   0.00377   0.63471
    A9        0.62958   0.00040   0.00000   0.00378   0.00354   0.63312
   A10        3.13422  -0.00006   0.00000  -0.00045  -0.00045   3.13377
   A11        3.14159   0.00000   0.00000   0.00000   0.00000   3.14159
         Item               Value     Threshold  Converged?
 Maximum Force            0.022437     0.000450     NO 
 RMS     Force            0.005627     0.000300     NO 
 Maximum Displacement     0.172736     0.001800     NO 
 RMS     Displacement     0.045532     0.001200     NO 
 Predicted change in Energy=-2.337588D-03
 GradGradGradGradGradGradGradGradGradGradGradGradGradGradGradGradGradGrad

 Leave Link  103 at Fri Dec 14 16:26:45 2012, MaxMem=  346030080 cpu:       0.0
 (Enter /afs/physto.se/common/scratch/odelius/x86_64//g03root/g03/l202.exe)
                          Input orientation:                          
 ---------------------------------------------------------------------
 Center     Atomic     Atomic              Coordinates (Angstroms)
 Number     Number      Type              X           Y           Z
 ---------------------------------------------------------------------
    1          6             0       -0.000059    0.325206    0.000000
    2          1             0       -1.050876    0.583082    0.000000
    3          1             0        0.517817    0.612237    0.905693
    4          1             0        0.517817    0.612237   -0.905693
    5         17             0        0.037459   -1.635419    0.000000
    6         35             0       -0.080592    3.311544    0.000000
 ---------------------------------------------------------------------
                    Distance matrix (angstroms):
                    1          2          3          4          5
     1  C    0.000000
     2  H    1.081997   0.000000
     3  H    1.082064   1.811609   0.000000
     4  H    1.082064   1.811609   1.811387   0.000000
     5  Cl   1.960985   2.471077   2.470421   2.470421   0.000000
     6  Br   2.987424   2.895852   2.909405   2.909405   4.948372
                    6
     6  Br   0.000000
 Stoichiometry    CH3BrCl(1-)
 Framework group  CS[SG(CHBrCl),X(H2)]
 Deg. of freedom     8
 Full point group                 CS      NOp   2
 Largest Abelian subgroup         CS      NOp   2
 Largest concise Abelian subgroup CS      NOp   2
                         Standard orientation:                         
 ---------------------------------------------------------------------
 Center     Atomic     Atomic              Coordinates (Angstroms)
 Number     Number      Type              X           Y           Z
 ---------------------------------------------------------------------
    1          6             0        0.000000    1.181256    0.000000
    2          1             0        1.042471    0.891476    0.000000
    3          1             0       -0.526382    0.910141    0.905693
    4          1             0       -0.526382    0.910141   -0.905693
    5         17             0        0.022250    3.142114    0.000000
    6         35             0       -0.010513   -1.806149    0.000000
 ---------------------------------------------------------------------
 Rotational constants (GHZ):    152.7534864      0.8129553      0.8129531
 Leave Link  202 at Fri Dec 14 16:26:46 2012, MaxMem=  346030080 cpu:       0.1
 (Enter /afs/physto.se/common/scratch/odelius/x86_64//g03root/g03/l301.exe)
 Standard basis: 6-31G(d,p) (6D, 7F)
 There are    56 symmetry adapted basis functions of A'  symmetry.
 There are    23 symmetry adapted basis functions of A"  symmetry.
 Integral buffers will be    262144 words long.
 Raffenetti 2 integral format.
 Two-electron integral symmetry is turned on.
    79 basis functions,   184 primitive gaussians,    79 cartesian basis functions
    31 alpha electrons       31 beta electrons
       nuclear repulsion energy       168.0829834880 Hartrees.
 IExCor= 402 DFT=T Ex=B+HF Corr=LYP ExCW=0 ScaHFX=  0.200000
 ScaDFX=  0.800000  0.720000  1.000000  0.810000
 IRadAn=      0 IRanWt=     -1 IRanGd=            0 ICorTp=0
 NAtoms=    6 NActive=    6 NUniq=    5 SFac= 1.58D+00 NAtFMM=   60 Big=F
 Leave Link  301 at Fri Dec 14 16:26:48 2012, MaxMem=  346030080 cpu:       0.0
 (Enter /afs/physto.se/common/scratch/odelius/x86_64//g03root/g03/l302.exe)
 NPDir=0 NMtPBC=     1 NCelOv=     1 NCel=       1 NClECP=     1 NCelD=      1
         NCelK=      1 NCelE2=     1 NClLst=     1 CellRange=     0.0.
 One-electron integrals computed using PRISM.
 One-electron integral symmetry used in STVInt
 NBasis=    79 RedAO= T  NBF=    56    23
 NBsUse=    79 1.00D-06 NBFU=    56    23
 Precomputing XC quadrature grid using
 IXCGrd= 2 IRadAn=           0 IRanWt=          -1 IRanGd=           0.
 NRdTot=     368 NPtTot=       50234 NUsed=       51903 NTot=       51919
 NSgBfM=    79    79    79    79.
 Leave Link  302 at Fri Dec 14 16:26:49 2012, MaxMem=  346030080 cpu:       0.5
 (Enter /afs/physto.se/common/scratch/odelius/x86_64//g03root/g03/l303.exe)
 DipDrv:  MaxL=1.
 Leave Link  303 at Fri Dec 14 16:26:51 2012, MaxMem=  346030080 cpu:       0.0
 (Enter /afs/physto.se/common/scratch/odelius/x86_64//g03root/g03/l401.exe)
 Initial guess read from the read-write file:
 Guess basis will be translated and rotated to current coordinates.
 Initial guess orbital symmetries:
       Occupied  (A') (A') (A') (A') (A') (A") (A') (A') (A') (A')
                 (A') (A") (A') (A') (A") (A') (A") (A') (A') (A")
                 (A') (A') (A') (A") (A') (A') (A") (A') (A') (A')
                 (A")
       Virtual   (A') (A') (A") (A') (A') (A') (A') (A") (A') (A")
                 (A') (A') (A') (A") (A') (A") (A') (A') (A") (A')
                 (A") (A') (A") (A') (A') (A") (A') (A') (A') (A")
                 (A') (A') (A') (A") (A") (A') (A") (A') (A') (A')
                 (A") (A') (A") (A') (A') (A') (A') (A')
 The electronic state of the initial guess is 1-A'.
 Generating alternative initial guess.
 Harris functional with IExCor=  402 diagonalized for initial guess.
 ExpMin= 1.43D-01 ExpMax= 5.74D+05 ExpMxC= 5.74D+03 IAcc=2 IRadAn=         4 AccDes= 0.00D+00
 HarFok:  IExCor= 402 AccDes= 0.00D+00 IRadAn=         4 IDoV=1
 ScaDFX=  1.000000  1.000000  1.000000  1.000000
 Harris En= -3072.08441614857    
 Leave Link  401 at Fri Dec 14 16:26:52 2012, MaxMem=  346030080 cpu:       0.5
 (Enter /afs/physto.se/common/scratch/odelius/x86_64//g03root/g03/l502.exe)
 Closed shell SCF:
 Requested convergence on RMS density matrix=1.00D-08 within 128 cycles.
 Requested convergence on MAX density matrix=1.00D-06.
 Requested convergence on             energy=1.00D-06.
 No special actions if energy rises.
 Using DIIS extrapolation, IDIIS=  1040.
 Integral symmetry usage will be decided dynamically.
        51902 words used for storage of precomputed grid.
 Keep R1 integrals in memory in canonical form, NReq=     5767403.
 IEnd=     90208 IEndB=     90208 NGot= 346030080 MDV= 340968439
 LenX= 340968439
 Symmetry not used in FoFDir.
 MinBra= 0 MaxBra= 2 Meth= 1.
 IRaf=       0 NMat=   1 IRICut=       1 DoRegI=T DoRafI=F ISym2E= 0 JSym2E=0.
 Integral accuracy reduced to 1.0D-05 until final iterations.

 Cycle   1  Pass 0  IDiag  1:
 E= -3071.89268555229    
 DIIS: error= 3.47D-03 at cycle   1 NSaved=   1.
 NSaved= 1 IEnMin= 1 EnMin= -3071.89268555229     IErMin= 1 ErrMin= 3.47D-03
 ErrMax= 3.47D-03 EMaxC= 1.00D-01 BMatC= 9.25D-04 BMatP= 9.25D-04
 IDIUse=3 WtCom= 9.65D-01 WtEn= 3.47D-02
 Coeff-Com:  0.100D+01
 Coeff-En:   0.100D+01
 Coeff:      0.100D+01
 Gap=     0.183 Goal=   None    Shift=    0.000
 GapD=    0.183 DampG=1.000 DampE=1.000 DampFc=1.0000 IDamp=-1.
 RMSDP=6.53D-04 MaxDP=9.59D-03              OVMax= 1.79D-02

 Cycle   2  Pass 0  IDiag  1:
 E= -3071.89365238553     Delta-E=       -0.000966833246 Rises=F Damp=F
 DIIS: error= 1.04D-03 at cycle   2 NSaved=   2.
 NSaved= 2 IEnMin= 2 EnMin= -3071.89365238553     IErMin= 2 ErrMin= 1.04D-03
 ErrMax= 1.04D-03 EMaxC= 1.00D-01 BMatC= 7.06D-05 BMatP= 9.25D-04
 IDIUse=3 WtCom= 9.90D-01 WtEn= 1.04D-02
 Coeff-Com:  0.113D+00 0.887D+00
 Coeff-En:   0.000D+00 0.100D+01
 Coeff:      0.112D+00 0.888D+00
 Gap=     0.176 Goal=   None    Shift=    0.000
 RMSDP=2.26D-04 MaxDP=5.19D-03 DE=-9.67D-04 OVMax= 7.11D-03

 Cycle   3  Pass 0  IDiag  1:
 E= -3071.89365631580     Delta-E=       -0.000003930264 Rises=F Damp=F
 DIIS: error= 8.80D-04 at cycle   3 NSaved=   3.
 NSaved= 3 IEnMin= 3 EnMin= -3071.89365631580     IErMin= 3 ErrMin= 8.80D-04
 ErrMax= 8.80D-04 EMaxC= 1.00D-01 BMatC= 6.78D-05 BMatP= 7.06D-05
 IDIUse=3 WtCom= 9.91D-01 WtEn= 8.80D-03
 Coeff-Com:  0.165D-02 0.495D+00 0.504D+00
 Coeff-En:   0.000D+00 0.488D+00 0.512D+00
 Coeff:      0.163D-02 0.494D+00 0.504D+00
 Gap=     0.175 Goal=   None    Shift=    0.000
 RMSDP=1.17D-04 MaxDP=2.89D-03 DE=-3.93D-06 OVMax= 4.50D-03

 Cycle   4  Pass 0  IDiag  1:
 E= -3071.89372852952     Delta-E=       -0.000072213727 Rises=F Damp=F
 DIIS: error= 1.53D-04 at cycle   4 NSaved=   4.
 NSaved= 4 IEnMin= 4 EnMin= -3071.89372852952     IErMin= 4 ErrMin= 1.53D-04
 ErrMax= 1.53D-04 EMaxC= 1.00D-01 BMatC= 2.14D-06 BMatP= 6.78D-05
 IDIUse=3 WtCom= 9.98D-01 WtEn= 1.53D-03
 Coeff-Com: -0.514D-02 0.181D+00 0.236D+00 0.588D+00
 Coeff-En:   0.000D+00 0.000D+00 0.000D+00 0.100D+01
 Coeff:     -0.513D-02 0.181D+00 0.236D+00 0.588D+00
 Gap=     0.175 Goal=   None    Shift=    0.000
 RMSDP=2.27D-05 MaxDP=4.16D-04 DE=-7.22D-05 OVMax= 6.32D-04

 Cycle   5  Pass 0  IDiag  1:
 E= -3071.89373089071     Delta-E=       -0.000002361188 Rises=F Damp=F
 DIIS: error= 1.89D-05 at cycle   5 NSaved=   5.
 NSaved= 5 IEnMin= 5 EnMin= -3071.89373089071     IErMin= 5 ErrMin= 1.89D-05
 ErrMax= 1.89D-05 EMaxC= 1.00D-01 BMatC= 4.05D-08 BMatP= 2.14D-06
 IDIUse=1 WtCom= 1.00D+00 WtEn= 0.00D+00
 Coeff-Com: -0.170D-02 0.265D-01 0.414D-01 0.170D+00 0.764D+00
 Coeff:     -0.170D-02 0.265D-01 0.414D-01 0.170D+00 0.764D+00
 Gap=     0.175 Goal=   None    Shift=    0.000
 RMSDP=4.83D-06 MaxDP=8.68D-05 DE=-2.36D-06 OVMax= 1.18D-04

 Initial convergence to 1.0D-05 achieved.  Increase integral accuracy.
 Cycle   6  Pass 1  IDiag  1:
 E= -3071.89468386212     Delta-E=       -0.000952971412 Rises=F Damp=F
 DIIS: error= 1.91D-04 at cycle   1 NSaved=   1.
 NSaved= 1 IEnMin= 1 EnMin= -3071.89468386212     IErMin= 1 ErrMin= 1.91D-04
 ErrMax= 1.91D-04 EMaxC= 1.00D-01 BMatC= 5.81D-07 BMatP= 5.81D-07
 IDIUse=3 WtCom= 9.98D-01 WtEn= 1.91D-03
 Coeff-Com:  0.100D+01
 Coeff-En:   0.100D+01
 Coeff:      0.100D+01
 Gap=     0.175 Goal=   None    Shift=    0.000
 RMSDP=4.83D-06 MaxDP=8.68D-05 DE=-9.53D-04 OVMax= 2.66D-04

 Cycle   7  Pass 1  IDiag  1:
 E= -3071.89468411995     Delta-E=       -0.000000257828 Rises=F Damp=F
 DIIS: error= 1.40D-05 at cycle   2 NSaved=   2.
 NSaved= 2 IEnMin= 2 EnMin= -3071.89468411995     IErMin= 2 ErrMin= 1.40D-05
 ErrMax= 1.40D-05 EMaxC= 1.00D-01 BMatC= 1.34D-08 BMatP= 5.81D-07
 IDIUse=1 WtCom= 1.00D+00 WtEn= 0.00D+00
 Coeff-Com:  0.335D-01 0.966D+00
 Coeff:      0.335D-01 0.966D+00
 Gap=     0.175 Goal=   None    Shift=    0.000
 RMSDP=5.09D-06 MaxDP=1.02D-04 DE=-2.58D-07 OVMax= 9.76D-05

 Cycle   8  Pass 1  IDiag  1:
 E= -3071.89468412555     Delta-E=       -0.000000005597 Rises=F Damp=F
 DIIS: error= 1.17D-05 at cycle   3 NSaved=   3.
 NSaved= 3 IEnMin= 3 EnMin= -3071.89468412555     IErMin= 3 ErrMin= 1.17D-05
 ErrMax= 1.17D-05 EMaxC= 1.00D-01 BMatC= 9.67D-09 BMatP= 1.34D-08
 IDIUse=1 WtCom= 1.00D+00 WtEn= 0.00D+00
 Coeff-Com: -0.217D-02 0.458D+00 0.544D+00
 Coeff:     -0.217D-02 0.458D+00 0.544D+00
 Gap=     0.175 Goal=   None    Shift=    0.000
 RMSDP=2.36D-06 MaxDP=4.18D-05 DE=-5.60D-09 OVMax= 4.94D-05

 Cycle   9  Pass 1  IDiag  1:
 E= -3071.89468413633     Delta-E=       -0.000000010781 Rises=F Damp=F
 DIIS: error= 1.42D-06 at cycle   4 NSaved=   4.
 NSaved= 4 IEnMin= 4 EnMin= -3071.89468413633     IErMin= 4 ErrMin= 1.42D-06
 ErrMax= 1.42D-06 EMaxC= 1.00D-01 BMatC= 1.83D-10 BMatP= 9.67D-09
 IDIUse=1 WtCom= 1.00D+00 WtEn= 0.00D+00
 Coeff-Com: -0.147D-02 0.182D+00 0.231D+00 0.588D+00
 Coeff:     -0.147D-02 0.182D+00 0.231D+00 0.588D+00
 Gap=     0.175 Goal=   None    Shift=    0.000
 RMSDP=3.01D-07 MaxDP=9.10D-06 DE=-1.08D-08 OVMax= 8.88D-06

 Cycle  10  Pass 1  IDiag  1:
 E= -3071.89468413653     Delta-E=       -0.000000000203 Rises=F Damp=F
 DIIS: error= 4.12D-07 at cycle   5 NSaved=   5.
 NSaved= 5 IEnMin= 5 EnMin= -3071.89468413653     IErMin= 5 ErrMin= 4.12D-07
 ErrMax= 4.12D-07 EMaxC= 1.00D-01 BMatC= 2.13D-11 BMatP= 1.83D-10
 IDIUse=1 WtCom= 1.00D+00 WtEn= 0.00D+00
 Coeff-Com: -0.438D-03 0.188D-01 0.232D-01 0.259D+00 0.700D+00
 Coeff:     -0.438D-03 0.188D-01 0.232D-01 0.259D+00 0.700D+00
 Gap=     0.175 Goal=   None    Shift=    0.000
 RMSDP=7.53D-08 MaxDP=2.01D-06 DE=-2.03D-10 OVMax= 2.65D-06

 Cycle  11  Pass 1  IDiag  1:
 E= -3071.89468413655     Delta-E=       -0.000000000021 Rises=F Damp=F
 DIIS: error= 1.71D-07 at cycle   6 NSaved=   6.
 NSaved= 6 IEnMin= 6 EnMin= -3071.89468413655     IErMin= 6 ErrMin= 1.71D-07
 ErrMax= 1.71D-07 EMaxC= 1.00D-01 BMatC= 2.20D-12 BMatP= 2.13D-11
 IDIUse=1 WtCom= 1.00D+00 WtEn= 0.00D+00
 Coeff-Com: -0.155D-03 0.863D-04-0.152D-03 0.107D+00 0.366D+00 0.528D+00
 Coeff:     -0.155D-03 0.863D-04-0.152D-03 0.107D+00 0.366D+00 0.528D+00
 Gap=     0.175 Goal=   None    Shift=    0.000
 RMSDP=2.87D-08 MaxDP=3.33D-07 DE=-2.14D-11 OVMax= 8.46D-07

 Cycle  12  Pass 1  IDiag  1:
 E= -3071.89468413655     Delta-E=       -0.000000000003 Rises=F Damp=F
 DIIS: error= 2.78D-08 at cycle   7 NSaved=   7.
 NSaved= 7 IEnMin= 7 EnMin= -3071.89468413655     IErMin= 7 ErrMin= 2.78D-08
 ErrMax= 2.78D-08 EMaxC= 1.00D-01 BMatC= 4.60D-14 BMatP= 2.20D-12
 IDIUse=1 WtCom= 1.00D+00 WtEn= 0.00D+00
 Coeff-Com: -0.774D-05-0.175D-02-0.192D-02 0.132D-01 0.532D-01 0.163D+00
 Coeff-Com:  0.774D+00
 Coeff:     -0.774D-05-0.175D-02-0.192D-02 0.132D-01 0.532D-01 0.163D+00
 Coeff:      0.774D+00
 Gap=     0.175 Goal=   None    Shift=    0.000
 RMSDP=4.09D-09 MaxDP=8.11D-08 DE=-3.18D-12 OVMax= 9.95D-08

 SCF Done:  E(RB+HF-LYP) =  -3071.89468414     A.U. after   12 cycles
             Convg  =    0.4085D-08             -V/T =  2.0057
             S**2   =   0.0000
 KE= 3.054461082488D+03 PE=-7.671187939263D+03 EE= 1.376749189150D+03
 Leave Link  502 at Fri Dec 14 16:26:56 2012, MaxMem=  346030080 cpu:       7.8
 (Enter /afs/physto.se/common/scratch/odelius/x86_64//g03root/g03/l701.exe)
 Compute integral first derivatives.
 ... and contract with generalized density number  0.
 Leave Link  701 at Fri Dec 14 16:26:58 2012, MaxMem=  346030080 cpu:       0.8
 (Enter /afs/physto.se/common/scratch/odelius/x86_64//g03root/g03/l702.exe)
 L702 exits ... SP integral derivatives will be done elsewhere.
 Leave Link  702 at Fri Dec 14 16:27:02 2012, MaxMem=  346030080 cpu:       0.0
 (Enter /afs/physto.se/common/scratch/odelius/x86_64//g03root/g03/l703.exe)
 Compute integral first derivatives, UseDBF=F.
 Integral derivatives from FoFDir, PRISM(SPDF).
 Petite list used in FoFDir.
 MinBra= 0 MaxBra= 2 Meth= 1.
 IRaf=       0 NMat=   1 IRICut=       1 DoRegI=T DoRafI=F ISym2E= 1 JSym2E=1.
 Leave Link  703 at Fri Dec 14 16:27:25 2012, MaxMem=  346030080 cpu:       8.1
 (Enter /afs/physto.se/common/scratch/odelius/x86_64//g03root/g03/l716.exe)
 Dipole        =-1.93504486D-04 1.00303954D+00 0.00000000D+00
 ***** Axes restored to original set *****
 -------------------------------------------------------------------
 Center     Atomic                   Forces (Hartrees/Bohr)
 Number     Number              X              Y              Z
 -------------------------------------------------------------------
    1          6           0.000239019   -0.012484847    0.000000000
    2          1           0.001312563    0.001394949    0.000000000
    3          1          -0.000669933    0.001394841   -0.001150279
    4          1          -0.000669933    0.001394841    0.001150279
    5         17          -0.000095558    0.006226556    0.000000000
    6         35          -0.000116157    0.002073661    0.000000000
 -------------------------------------------------------------------
 Cartesian Forces:  Max     0.012484847 RMS     0.003416667
 Leave Link  716 at Fri Dec 14 16:27:27 2012, MaxMem=  346030080 cpu:       0.0
 (Enter /afs/physto.se/common/scratch/odelius/x86_64//g03root/g03/l103.exe)

 GradGradGradGradGradGradGradGradGradGradGradGradGradGradGradGradGradGrad
 Berny optimization.
 Internal  Forces:  Max     0.006227177 RMS     0.001830527
 Search for a local minimum.
 Step number   2 out of a maximum of  29
 All quantities printed in internal units (Hartrees-Bohrs-Radians)
 Update second derivatives using D2CorX and points  1  2
 Trust test= 1.14D+00 RLast= 1.85D-01 DXMaxT set to 4.24D-01
 The second derivative matrix:
                          R1        R2        R3        R4        R5
           R1           0.35766
           R2           0.00011   0.35751
           R3           0.00011   0.00010   0.35751
           R4          -0.00292  -0.00276  -0.00276   0.09292
           R5          -0.00152  -0.00138  -0.00138   0.02936   0.04109
           R6           0.00038   0.00035   0.00035  -0.00762  -0.00457
           R7           0.00039   0.00035   0.00035  -0.00765  -0.00463
           R8           0.00039   0.00035   0.00035  -0.00765  -0.00463
           A1           0.00076   0.00071   0.00071   0.00329  -0.00810
           A2           0.00076   0.00071   0.00071   0.00329  -0.00810
           A3          -0.00089  -0.00083  -0.00083  -0.00398   0.00939
           A4           0.00076   0.00071   0.00071   0.00295  -0.00804
           A5          -0.00088  -0.00082  -0.00082  -0.00408   0.00933
           A6          -0.00088  -0.00082  -0.00082  -0.00408   0.00933
           A7           0.00016   0.00015   0.00015  -0.00064  -0.00175
           A8           0.00016   0.00015   0.00015  -0.00064  -0.00175
           A9           0.00015   0.00014   0.00014  -0.00073  -0.00171
           A10         -0.00001  -0.00001  -0.00001  -0.00045   0.00003
           A11          0.00000   0.00000   0.00000   0.00000   0.00000
                          R6        R7        R8        A1        A2
           R6           0.01739
           R7           0.00117   0.01717
           R8           0.00117   0.00118   0.01717
           A1           0.00209   0.00210   0.00210   0.16060
           A2           0.00209   0.00210   0.00210   0.00060   0.16060
           A3          -0.00242  -0.00243  -0.00243  -0.00066  -0.00066
           A4           0.00207   0.00208   0.00208   0.00065   0.00065
           A5          -0.00240  -0.00242  -0.00242  -0.00063  -0.00063
           A6          -0.00240  -0.00242  -0.00242  -0.00063  -0.00063
           A7           0.00045   0.00045   0.00045   0.00038   0.00038
           A8           0.00045   0.00045   0.00045   0.00038   0.00038
           A9           0.00044   0.00044   0.00044   0.00039   0.00039
           A10         -0.00001  -0.00001  -0.00001   0.00008   0.00008
           A11          0.00000   0.00000   0.00000   0.00000   0.00000
                          A3        A4        A5        A6        A7
           A3           0.16073
           A4          -0.00072   0.16070
           A5           0.00070  -0.00070   0.16067
           A6           0.00070  -0.00070   0.00067   0.16067
           A7          -0.00044   0.00038  -0.00043  -0.00043   0.16012
           A8          -0.00044   0.00038  -0.00043  -0.00043   0.00012
           A9          -0.00045   0.00039  -0.00044  -0.00044   0.00012
           A10         -0.00009   0.00008  -0.00009  -0.00009   0.00001
           A11          0.00000   0.00000   0.00000   0.00000   0.00000
                          A8        A9        A10       A11
           A8           0.16012
           A9           0.00012   0.16012
           A10          0.00001   0.00001   0.25000
           A11          0.00000   0.00000   0.00000   0.25000
     Eigenvalues ---    0.01925   0.03285   0.03288   0.08909   0.14182
     Eigenvalues ---    0.16000   0.16000   0.19703   0.19705   0.33999
     Eigenvalues ---    0.35253   0.352651000.000001000.000001000.00000
     Eigenvalues --- 1000.000001000.000001000.000001000.00000
 RFO step:  Lambda=-6.04118626D-04.
 Quartic linear search produced a step of  0.12303.
 Iteration  1 RMS(Cart)=  0.01279031 RMS(Int)=  0.00016110
 Iteration  2 RMS(Cart)=  0.00007852 RMS(Int)=  0.00013464
 Iteration  3 RMS(Cart)=  0.00000001 RMS(Int)=  0.00013464
 Variable       Old X    -DE/DX   Delta X   Delta X   Delta X     New X
                                 (Linear)    (Quad)   (Total)
    R1        2.04468  -0.00075   0.00000  -0.00226  -0.00225   2.04243
    R2        2.04480  -0.00073  -0.00001  -0.00221  -0.00221   2.04260
    R3        2.04480  -0.00073  -0.00001  -0.00221  -0.00221   2.04260
    R4        3.70572  -0.00623  -0.01987  -0.05025  -0.07012   3.63560
    R5        5.64541   0.00309  -0.00607   0.05505   0.04878   5.69419
    R6        5.47237  -0.00043   0.00186   0.01547   0.01739   5.48976
    R7        5.49798  -0.00041   0.00201   0.01594   0.01802   5.51600
    R8        5.49798  -0.00041   0.00201   0.01594   0.01802   5.51600
    A1        1.98405  -0.00127   0.00321  -0.01404  -0.01111   1.97294
    A2        1.98405  -0.00127   0.00321  -0.01404  -0.01111   1.97294
    A3        1.83058   0.00156  -0.00375   0.01732   0.01346   1.84404
    A4        1.98358  -0.00132   0.00313  -0.01426  -0.01141   1.97217
    A5        1.82974   0.00160  -0.00375   0.01742   0.01356   1.84330
    A6        1.82974   0.00160  -0.00375   0.01742   0.01356   1.84330
    A7        0.63471  -0.00046   0.00046  -0.00561  -0.00521   0.62950
    A8        0.63471  -0.00046   0.00046  -0.00561  -0.00521   0.62950
    A9        0.63312  -0.00047   0.00044  -0.00566  -0.00529   0.62783
   A10        3.13377  -0.00003  -0.00006  -0.00021  -0.00027   3.13350
   A11        3.14159   0.00000   0.00000   0.00000   0.00000   3.14159
         Item               Value     Threshold  Converged?
 Maximum Force            0.006227     0.000450     NO 
 RMS     Force            0.001831     0.000300     NO 
 Maximum Displacement     0.037242     0.001800     NO 
 RMS     Displacement     0.012826     0.001200     NO 
 Predicted change in Energy=-3.551048D-04
 GradGradGradGradGradGradGradGradGradGradGradGradGradGradGradGradGradGrad

 Leave Link  103 at Fri Dec 14 16:27:28 2012, MaxMem=  346030080 cpu:       0.0
 (Enter /afs/physto.se/common/scratch/odelius/x86_64//g03root/g03/l202.exe)
                          Input orientation:                          
 ---------------------------------------------------------------------
 Center     Atomic     Atomic              Coordinates (Angstroms)
 Number     Number      Type              X           Y           Z
 ---------------------------------------------------------------------
    1          6             0        0.000349    0.307822    0.000000
    2          1             0       -1.045701    0.579715    0.000000
    3          1             0        0.515622    0.608553    0.901327
    4          1             0        0.515622    0.608553   -0.901327
    5         17             0        0.036797   -1.615712    0.000000
    6         35             0       -0.081123    3.319957    0.000000
 ---------------------------------------------------------------------
                    Distance matrix (angstroms):
                    1          2          3          4          5
     1  C    0.000000
     2  H    1.080809   0.000000
     3  H    1.080896   1.803040   0.000000
     4  H    1.080896   1.803040   1.802655   0.000000
     5  Cl   1.923879   2.447795   2.447247   2.447247   0.000000
     6  Br   3.013236   2.905054   2.918939   2.918939   4.937077
                    6
     6  Br   0.000000
 Stoichiometry    CH3BrCl(1-)
 Framework group  CS[SG(CHBrCl),X(H2)]
 Deg. of freedom     8
 Full point group                 CS      NOp   2
 Largest Abelian subgroup         CS      NOp   2
 Largest concise Abelian subgroup CS      NOp   2
                         Standard orientation:                         
 ---------------------------------------------------------------------
 Center     Atomic     Atomic              Coordinates (Angstroms)
 Number     Number      Type              X           Y           Z
 ---------------------------------------------------------------------
    1          6             0        0.000000    1.207087    0.000000
    2          1             0        1.037264    0.903393    0.000000
    3          1             0       -0.524212    0.922224    0.901327
    4          1             0       -0.524212    0.922224   -0.901327
    5         17             0        0.022279    3.130837    0.000000
    6         35             0       -0.010503   -1.806131    0.000000
 ---------------------------------------------------------------------
 Rotational constants (GHZ):    154.2146272      0.8151843      0.8151815
 Leave Link  202 at Fri Dec 14 16:27:30 2012, MaxMem=  346030080 cpu:       0.1
 (Enter /afs/physto.se/common/scratch/odelius/x86_64//g03root/g03/l301.exe)
 Standard basis: 6-31G(d,p) (6D, 7F)
 There are    56 symmetry adapted basis functions of A'  symmetry.
 There are    23 symmetry adapted basis functions of A"  symmetry.
 Integral buffers will be    262144 words long.
 Raffenetti 2 integral format.
 Two-electron integral symmetry is turned on.
    79 basis functions,   184 primitive gaussians,    79 cartesian basis functions
    31 alpha electrons       31 beta electrons
       nuclear repulsion energy       168.4962708586 Hartrees.
 IExCor= 402 DFT=T Ex=B+HF Corr=LYP ExCW=0 ScaHFX=  0.200000
 ScaDFX=  0.800000  0.720000  1.000000  0.810000
 IRadAn=      0 IRanWt=     -1 IRanGd=            0 ICorTp=0
 NAtoms=    6 NActive=    6 NUniq=    5 SFac= 1.58D+00 NAtFMM=   60 Big=F
 Leave Link  301 at Fri Dec 14 16:27:55 2012, MaxMem=  346030080 cpu:       0.4
 (Enter /afs/physto.se/common/scratch/odelius/x86_64//g03root/g03/l302.exe)
 NPDir=0 NMtPBC=     1 NCelOv=     1 NCel=       1 NClECP=     1 NCelD=      1
         NCelK=      1 NCelE2=     1 NClLst=     1 CellRange=     0.0.
 One-electron integrals computed using PRISM.
 One-electron integral symmetry used in STVInt
 NBasis=    79 RedAO= T  NBF=    56    23
 NBsUse=    79 1.00D-06 NBFU=    56    23
 Precomputing XC quadrature grid using
 IXCGrd= 2 IRadAn=           0 IRanWt=          -1 IRanGd=           0.
 NRdTot=     368 NPtTot=       50234 NUsed=       51903 NTot=       51919
 NSgBfM=    79    79    79    79.
 Leave Link  302 at Fri Dec 14 16:27:57 2012, MaxMem=  346030080 cpu:       0.5
 (Enter /afs/physto.se/common/scratch/odelius/x86_64//g03root/g03/l303.exe)
 DipDrv:  MaxL=1.
 Leave Link  303 at Fri Dec 14 16:27:58 2012, MaxMem=  346030080 cpu:       0.0
 (Enter /afs/physto.se/common/scratch/odelius/x86_64//g03root/g03/l401.exe)
 Initial guess read from the read-write file:
 Guess basis will be translated and rotated to current coordinates.
 Initial guess orbital symmetries:
       Occupied  (A') (A') (A') (A') (A') (A") (A') (A') (A') (A')
                 (A') (A") (A') (A') (A") (A') (A") (A') (A") (A')
                 (A') (A') (A') (A") (A') (A') (A") (A') (A') (A')
                 (A")
       Virtual   (A') (A') (A") (A') (A') (A') (A') (A") (A') (A")
                 (A') (A') (A') (A") (A') (A") (A') (A') (A") (A')
                 (A") (A') (A") (A') (A') (A") (A') (A') (A') (A")
                 (A') (A') (A") (A') (A") (A') (A") (A') (A') (A")
                 (A') (A') (A") (A') (A') (A') (A') (A')
 The electronic state of the initial guess is 1-A'.
 Generating alternative initial guess.
 Harris functional with IExCor=  402 diagonalized for initial guess.
 ExpMin= 1.43D-01 ExpMax= 5.74D+05 ExpMxC= 5.74D+03 IAcc=2 IRadAn=         4 AccDes= 0.00D+00
 HarFok:  IExCor= 402 AccDes= 0.00D+00 IRadAn=         4 IDoV=1
 ScaDFX=  1.000000  1.000000  1.000000  1.000000
 Harris En= -3072.08735245208    
 Leave Link  401 at Fri Dec 14 16:28:00 2012, MaxMem=  346030080 cpu:       0.5
 (Enter /afs/physto.se/common/scratch/odelius/x86_64//g03root/g03/l502.exe)
 Closed shell SCF:
 Requested convergence on RMS density matrix=1.00D-08 within 128 cycles.
 Requested convergence on MAX density matrix=1.00D-06.
 Requested convergence on             energy=1.00D-06.
 No special actions if energy rises.
 Using DIIS extrapolation, IDIIS=  1040.
 Integral symmetry usage will be decided dynamically.
        51902 words used for storage of precomputed grid.
 Keep R1 integrals in memory in canonical form, NReq=     5767403.
 IEnd=     90208 IEndB=     90208 NGot= 346030080 MDV= 340968439
 LenX= 340968439
 Symmetry not used in FoFDir.
 MinBra= 0 MaxBra= 2 Meth= 1.
 IRaf=       0 NMat=   1 IRICut=       1 DoRegI=T DoRafI=F ISym2E= 0 JSym2E=0.
 Integral accuracy reduced to 1.0D-05 until final iterations.

 Cycle   1  Pass 0  IDiag  1:
 E= -3071.89396047862    
 DIIS: error= 1.01D-03 at cycle   1 NSaved=   1.
 NSaved= 1 IEnMin= 1 EnMin= -3071.89396047862     IErMin= 1 ErrMin= 1.01D-03
 ErrMax= 1.01D-03 EMaxC= 1.00D-01 BMatC= 1.85D-04 BMatP= 1.85D-04
 IDIUse=3 WtCom= 9.90D-01 WtEn= 1.01D-02
 Coeff-Com:  0.100D+01
 Coeff-En:   0.100D+01
 Coeff:      0.100D+01
 Gap=     0.182 Goal=   None    Shift=    0.000
 GapD=    0.182 DampG=1.000 DampE=1.000 DampFc=1.0000 IDamp=-1.
 RMSDP=4.00D-04 MaxDP=6.34D-03              OVMax= 1.27D-02

 Cycle   2  Pass 0  IDiag  1:
 E= -3071.89426945189     Delta-E=       -0.000308973275 Rises=F Damp=F
 DIIS: error= 4.75D-04 at cycle   2 NSaved=   2.
 NSaved= 2 IEnMin= 2 EnMin= -3071.89426945189     IErMin= 2 ErrMin= 4.75D-04
 ErrMax= 4.75D-04 EMaxC= 1.00D-01 BMatC= 2.55D-05 BMatP= 1.85D-04
 IDIUse=3 WtCom= 9.95D-01 WtEn= 4.75D-03
 Coeff-Com:  0.141D+00 0.859D+00
 Coeff-En:   0.000D+00 0.100D+01
 Coeff:      0.140D+00 0.860D+00
 Gap=     0.179 Goal=   None    Shift=    0.000
 RMSDP=1.55D-04 MaxDP=3.67D-03 DE=-3.09D-04 OVMax= 5.04D-03

 Cycle   3  Pass 0  IDiag  1:
 E= -3071.89426937620     Delta-E=        0.000000075695 Rises=F Damp=F
 DIIS: error= 5.70D-04 at cycle   3 NSaved=   3.
 NSaved= 3 IEnMin= 2 EnMin= -3071.89426945189     IErMin= 2 ErrMin= 4.75D-04
 ErrMax= 5.70D-04 EMaxC= 1.00D-01 BMatC= 2.77D-05 BMatP= 2.55D-05
 IDIUse=3 WtCom= 9.94D-01 WtEn= 5.70D-03
 Coeff-Com: -0.230D-01 0.517D+00 0.506D+00
 Coeff-En:   0.000D+00 0.501D+00 0.499D+00
 Coeff:     -0.229D-01 0.517D+00 0.506D+00
 Gap=     0.179 Goal=   None    Shift=    0.000
 RMSDP=7.15D-05 MaxDP=1.91D-03 DE= 7.57D-08 OVMax= 2.69D-03

 Cycle   4  Pass 0  IDiag  1:
 E= -3071.89429990697     Delta-E=       -0.000030530768 Rises=F Damp=F
 DIIS: error= 4.53D-05 at cycle   4 NSaved=   4.
 NSaved= 4 IEnMin= 4 EnMin= -3071.89429990697     IErMin= 4 ErrMin= 4.53D-05
 ErrMax= 4.53D-05 EMaxC= 1.00D-01 BMatC= 2.70D-07 BMatP= 2.55D-05
 IDIUse=1 WtCom= 1.00D+00 WtEn= 0.00D+00
 Coeff-Com: -0.103D-01 0.169D+00 0.185D+00 0.657D+00
 Coeff:     -0.103D-01 0.169D+00 0.185D+00 0.657D+00
 Gap=     0.179 Goal=   None    Shift=    0.000
 RMSDP=1.49D-05 MaxDP=2.38D-04 DE=-3.05D-05 OVMax= 4.08D-04

 Cycle   5  Pass 0  IDiag  1:
 E= -3071.89430021840     Delta-E=       -0.000000311438 Rises=F Damp=F
 DIIS: error= 1.66D-05 at cycle   5 NSaved=   5.
 NSaved= 5 IEnMin= 5 EnMin= -3071.89430021840     IErMin= 5 ErrMin= 1.66D-05
 ErrMax= 1.66D-05 EMaxC= 1.00D-01 BMatC= 2.28D-08 BMatP= 2.70D-07
 IDIUse=1 WtCom= 1.00D+00 WtEn= 0.00D+00
 Coeff-Com: -0.312D-02 0.305D-01 0.366D-01 0.248D+00 0.688D+00
 Coeff:     -0.312D-02 0.305D-01 0.366D-01 0.248D+00 0.688D+00
 Gap=     0.179 Goal=   None    Shift=    0.000
 RMSDP=3.99D-06 MaxDP=6.55D-05 DE=-3.11D-07 OVMax= 8.75D-05

 Initial convergence to 1.0D-05 achieved.  Increase integral accuracy.
 Cycle   6  Pass 1  IDiag  1:
 E= -3071.89523605795     Delta-E=       -0.000935839546 Rises=F Damp=F
 DIIS: error= 1.95D-04 at cycle   1 NSaved=   1.
 NSaved= 1 IEnMin= 1 EnMin= -3071.89523605795     IErMin= 1 ErrMin= 1.95D-04
 ErrMax= 1.95D-04 EMaxC= 1.00D-01 BMatC= 6.00D-07 BMatP= 6.00D-07
 IDIUse=3 WtCom= 9.98D-01 WtEn= 1.95D-03
 Coeff-Com:  0.100D+01
 Coeff-En:   0.100D+01
 Coeff:      0.100D+01
 Gap=     0.179 Goal=   None    Shift=    0.000
 RMSDP=3.99D-06 MaxDP=6.55D-05 DE=-9.36D-04 OVMax= 2.69D-04

 Cycle   7  Pass 1  IDiag  1:
 E= -3071.89523632205     Delta-E=       -0.000000264105 Rises=F Damp=F
 DIIS: error= 1.68D-05 at cycle   2 NSaved=   2.
 NSaved= 2 IEnMin= 2 EnMin= -3071.89523632205     IErMin= 2 ErrMin= 1.68D-05
 ErrMax= 1.68D-05 EMaxC= 1.00D-01 BMatC= 1.81D-08 BMatP= 6.00D-07
 IDIUse=1 WtCom= 1.00D+00 WtEn= 0.00D+00
 Coeff-Com:  0.448D-01 0.955D+00
 Coeff:      0.448D-01 0.955D+00
 Gap=     0.179 Goal=   None    Shift=    0.000
 RMSDP=6.17D-06 MaxDP=1.21D-04 DE=-2.64D-07 OVMax= 1.20D-04

 Cycle   8  Pass 1  IDiag  1:
 E= -3071.89523632984     Delta-E=       -0.000000007785 Rises=F Damp=F
 DIIS: error= 1.38D-05 at cycle   3 NSaved=   3.
 NSaved= 3 IEnMin= 3 EnMin= -3071.89523632984     IErMin= 3 ErrMin= 1.38D-05
 ErrMax= 1.38D-05 EMaxC= 1.00D-01 BMatC= 1.27D-08 BMatP= 1.81D-08
 IDIUse=1 WtCom= 1.00D+00 WtEn= 0.00D+00
 Coeff-Com: -0.234D-02 0.455D+00 0.548D+00
 Coeff:     -0.234D-02 0.455D+00 0.548D+00
 Gap=     0.179 Goal=   None    Shift=    0.000
 RMSDP=2.78D-06 MaxDP=5.08D-05 DE=-7.79D-09 OVMax= 5.73D-05

 Cycle   9  Pass 1  IDiag  1:
 E= -3071.89523634383     Delta-E=       -0.000000013985 Rises=F Damp=F
 DIIS: error= 1.39D-06 at cycle   4 NSaved=   4.
 NSaved= 4 IEnMin= 4 EnMin= -3071.89523634383     IErMin= 4 ErrMin= 1.39D-06
 ErrMax= 1.39D-06 EMaxC= 1.00D-01 BMatC= 1.67D-10 BMatP= 1.27D-08
 IDIUse=1 WtCom= 1.00D+00 WtEn= 0.00D+00
 Coeff-Com: -0.154D-02 0.180D+00 0.224D+00 0.597D+00
 Coeff:     -0.154D-02 0.180D+00 0.224D+00 0.597D+00
 Gap=     0.179 Goal=   None    Shift=    0.000
 RMSDP=2.93D-07 MaxDP=8.67D-06 DE=-1.40D-08 OVMax= 7.96D-06

 Cycle  10  Pass 1  IDiag  1:
 E= -3071.89523634400     Delta-E=       -0.000000000180 Rises=F Damp=F
 DIIS: error= 3.93D-07 at cycle   5 NSaved=   5.
 NSaved= 5 IEnMin= 5 EnMin= -3071.89523634400     IErMin= 5 ErrMin= 3.93D-07
 ErrMax= 3.93D-07 EMaxC= 1.00D-01 BMatC= 1.89D-11 BMatP= 1.67D-10
 IDIUse=1 WtCom= 1.00D+00 WtEn= 0.00D+00
 Coeff-Com: -0.419D-03 0.169D-01 0.180D-01 0.251D+00 0.715D+00
 Coeff:     -0.419D-03 0.169D-01 0.180D-01 0.251D+00 0.715D+00
 Gap=     0.179 Goal=   None    Shift=    0.000
 RMSDP=7.20D-08 MaxDP=1.97D-06 DE=-1.80D-10 OVMax= 2.53D-06

 Cycle  11  Pass 1  IDiag  1:
 E= -3071.89523634402     Delta-E=       -0.000000000018 Rises=F Damp=F
 DIIS: error= 1.86D-07 at cycle   6 NSaved=   6.
 NSaved= 6 IEnMin= 6 EnMin= -3071.89523634402     IErMin= 6 ErrMin= 1.86D-07
 ErrMax= 1.86D-07 EMaxC= 1.00D-01 BMatC= 2.32D-12 BMatP= 1.89D-11
 IDIUse=1 WtCom= 1.00D+00 WtEn= 0.00D+00
 Coeff-Com: -0.141D-03-0.990D-03-0.268D-02 0.104D+00 0.381D+00 0.519D+00
 Coeff:     -0.141D-03-0.990D-03-0.268D-02 0.104D+00 0.381D+00 0.519D+00
 Gap=     0.179 Goal=   None    Shift=    0.000
 RMSDP=2.64D-08 MaxDP=3.53D-07 DE=-1.82D-11 OVMax= 6.94D-07

 Cycle  12  Pass 1  IDiag  1:
 E= -3071.89523634402     Delta-E=       -0.000000000001 Rises=F Damp=F
 DIIS: error= 2.24D-08 at cycle   7 NSaved=   7.
 NSaved= 7 IEnMin= 7 EnMin= -3071.89523634402     IErMin= 7 ErrMin= 2.24D-08
 ErrMax= 2.24D-08 EMaxC= 1.00D-01 BMatC= 3.15D-14 BMatP= 2.32D-12
 IDIUse=1 WtCom= 1.00D+00 WtEn= 0.00D+00
 Coeff-Com: -0.455D-05-0.154D-02-0.169D-02 0.109D-01 0.465D-01 0.135D+00
 Coeff-Com:  0.811D+00
 Coeff:     -0.455D-05-0.154D-02-0.169D-02 0.109D-01 0.465D-01 0.135D+00
 Coeff:      0.811D+00
 Gap=     0.179 Goal=   None    Shift=    0.000
 RMSDP=3.67D-09 MaxDP=5.51D-08 DE=-1.36D-12 OVMax= 8.79D-08

 SCF Done:  E(RB+HF-LYP) =  -3071.89523634     A.U. after   12 cycles
             Convg  =    0.3672D-08             -V/T =  2.0057
             S**2   =   0.0000
 KE= 3.054492695498D+03 PE=-7.672088860550D+03 EE= 1.377204657849D+03
 Leave Link  502 at Fri Dec 14 16:28:06 2012, MaxMem=  346030080 cpu:      16.2
 (Enter /afs/physto.se/common/scratch/odelius/x86_64//g03root/g03/l701.exe)
 Compute integral first derivatives.
 ... and contract with generalized density number  0.
 Leave Link  701 at Fri Dec 14 16:28:07 2012, MaxMem=  346030080 cpu:       0.5
 (Enter /afs/physto.se/common/scratch/odelius/x86_64//g03root/g03/l702.exe)
 L702 exits ... SP integral derivatives will be done elsewhere.
 Leave Link  702 at Fri Dec 14 16:28:12 2012, MaxMem=  346030080 cpu:       0.0
 (Enter /afs/physto.se/common/scratch/odelius/x86_64//g03root/g03/l703.exe)
 Compute integral first derivatives, UseDBF=F.
 Integral derivatives from FoFDir, PRISM(SPDF).
 Petite list used in FoFDir.
 MinBra= 0 MaxBra= 2 Meth= 1.
 IRaf=       0 NMat=   1 IRICut=       1 DoRegI=T DoRafI=F ISym2E= 1 JSym2E=1.
 Leave Link  703 at Fri Dec 14 16:28:16 2012, MaxMem=  346030080 cpu:      11.4
 (Enter /afs/physto.se/common/scratch/odelius/x86_64//g03root/g03/l716.exe)
 Dipole        = 6.88887978D-04 1.15255838D+00 0.00000000D+00
 ***** Axes restored to original set *****
 -------------------------------------------------------------------
 Center     Atomic                   Forces (Hartrees/Bohr)
 Number     Number              X              Y              Z
 -------------------------------------------------------------------
    1          6           0.000233864   -0.010218910    0.000000000
    2          1           0.000103206    0.001975790    0.000000000
    3          1          -0.000102349    0.001988280   -0.000112748
    4          1          -0.000102349    0.001988280    0.000112748
    5         17          -0.000001913    0.001781720    0.000000000
    6         35          -0.000130460    0.002484840    0.000000000
 -------------------------------------------------------------------
 Cartesian Forces:  Max     0.010218910 RMS     0.002642748
 Leave Link  716 at Fri Dec 14 16:28:18 2012, MaxMem=  346030080 cpu:       0.2
 (Enter /afs/physto.se/common/scratch/odelius/x86_64//g03root/g03/l103.exe)

 GradGradGradGradGradGradGradGradGradGradGradGradGradGradGradGradGradGrad
 Berny optimization.
 Internal  Forces:  Max     0.003557376 RMS     0.001351429
 Search for a local minimum.
 Step number   3 out of a maximum of  29
 All quantities printed in internal units (Hartrees-Bohrs-Radians)
 Update second derivatives using D2CorX and points  1  2  3
 Trust test= 1.56D+00 RLast= 9.63D-02 DXMaxT set to 4.24D-01
 The second derivative matrix:
                          R1        R2        R3        R4        R5
           R1           0.36193
           R2           0.00434   0.36170
           R3           0.00434   0.00429   0.36170
           R4           0.01242   0.01241   0.01241   0.12280
           R5           0.00255   0.00264   0.00264   0.04466   0.04344
           R6           0.00061   0.00057   0.00057  -0.00319  -0.00455
           R7           0.00064   0.00060   0.00060  -0.00307  -0.00458
           R8           0.00064   0.00060   0.00060  -0.00307  -0.00458
           A1          -0.00407  -0.00406  -0.00406  -0.02720  -0.01004
           A2          -0.00407  -0.00406  -0.00406  -0.02720  -0.01004
           A3           0.00456   0.00455   0.00455   0.03119   0.01143
           A4          -0.00393  -0.00392  -0.00392  -0.02705  -0.00984
           A5           0.00453   0.00452   0.00452   0.03104   0.01133
           A6           0.00453   0.00452   0.00452   0.03104   0.01133
           A7           0.00033   0.00032   0.00032  -0.00382  -0.00091
           A8           0.00033   0.00032   0.00032  -0.00382  -0.00091
           A9           0.00035   0.00034   0.00034  -0.00387  -0.00085
           A10          0.00000   0.00000   0.00000  -0.00066   0.00006
           A11          0.00000   0.00000   0.00000   0.00000   0.00000
                          R6        R7        R8        A1        A2
           R6           0.01687
           R7           0.00065   0.01664
           R8           0.00065   0.00065   0.01664
           A1           0.00387   0.00389   0.00389   0.15565
           A2           0.00387   0.00389   0.00389  -0.00435   0.15565
           A3          -0.00455  -0.00458  -0.00458   0.00551   0.00551
           A4           0.00387   0.00389   0.00389  -0.00447  -0.00447
           A5          -0.00455  -0.00458  -0.00458   0.00563   0.00563
           A6          -0.00455  -0.00458  -0.00458   0.00563   0.00563
           A7           0.00104   0.00106   0.00106  -0.00269  -0.00269
           A8           0.00104   0.00106   0.00106  -0.00269  -0.00269
           A9           0.00104   0.00105   0.00105  -0.00271  -0.00271
           A10          0.00002   0.00002   0.00002  -0.00007  -0.00007
           A11          0.00000   0.00000   0.00000   0.00000   0.00000
                          A3        A4        A5        A6        A7
           A3           0.15306
           A4           0.00565   0.15541
           A5          -0.00708   0.00577   0.15279
           A6          -0.00708   0.00577  -0.00721   0.15279
           A7           0.00319  -0.00268   0.00321   0.00321   0.15933
           A8           0.00319  -0.00268   0.00321   0.00321  -0.00067
           A9           0.00322  -0.00270   0.00323   0.00323  -0.00068
           A10          0.00008  -0.00007   0.00008   0.00008  -0.00003
           A11          0.00000   0.00000   0.00000   0.00000   0.00000
                          A8        A9        A10       A11
           A8           0.15933
           A9          -0.00068   0.15932
           A10         -0.00003  -0.00003   0.25000
           A11          0.00000   0.00000   0.00000   0.25000
     Eigenvalues ---    0.01318   0.03283   0.03285   0.04576   0.16000
     Eigenvalues ---    0.16000   0.19702   0.19706   0.20056   0.35264
     Eigenvalues ---    0.35275   0.358581000.000001000.000001000.00000
     Eigenvalues --- 1000.000001000.000001000.000001000.00000
 RFO step:  Lambda=-3.17614700D-04.
 Quartic linear search produced a step of  1.05049.
 Iteration  1 RMS(Cart)=  0.01940237 RMS(Int)=  0.00068548
 Iteration  2 RMS(Cart)=  0.00040352 RMS(Int)=  0.00051446
 Iteration  3 RMS(Cart)=  0.00000011 RMS(Int)=  0.00051446
 Variable       Old X    -DE/DX   Delta X   Delta X   Delta X     New X
                                 (Linear)    (Quad)   (Total)
    R1        2.04243   0.00048  -0.00236   0.00409   0.00179   2.04422
    R2        2.04260   0.00049  -0.00232   0.00405   0.00179   2.04438
    R3        2.04260   0.00049  -0.00232   0.00405   0.00179   2.04438
    R4        3.63560  -0.00178  -0.07366  -0.01410  -0.08776   3.54784
    R5        5.69419   0.00356   0.05124   0.05500   0.10548   5.79968
    R6        5.48976  -0.00041   0.01827   0.01435   0.03287   5.52262
    R7        5.51600  -0.00039   0.01893   0.01525   0.03442   5.55042
    R8        5.51600  -0.00039   0.01893   0.01525   0.03442   5.55042
    A1        1.97294  -0.00156  -0.01167  -0.01535  -0.02809   1.94485
    A2        1.97294  -0.00156  -0.01167  -0.01535  -0.02809   1.94485
    A3        1.84404   0.00184   0.01414   0.01813   0.03180   1.87584
    A4        1.97217  -0.00157  -0.01199  -0.01521  -0.02826   1.94391
    A5        1.84330   0.00186   0.01425   0.01808   0.03185   1.87515
    A6        1.84330   0.00186   0.01425   0.01808   0.03185   1.87515
    A7        0.62950  -0.00014  -0.00547  -0.00376  -0.00947   0.62004
    A8        0.62950  -0.00014  -0.00547  -0.00376  -0.00947   0.62004
    A9        0.62783  -0.00014  -0.00555  -0.00378  -0.00956   0.61827
   A10        3.13350  -0.00002  -0.00028  -0.00023  -0.00051   3.13299
   A11        3.14159   0.00000   0.00000   0.00000   0.00000   3.14159
         Item               Value     Threshold  Converged?
 Maximum Force            0.003557     0.000450     NO 
 RMS     Force            0.001351     0.000300     NO 
 Maximum Displacement     0.063617     0.001800     NO 
 RMS     Displacement     0.019515     0.001200     NO 
 Predicted change in Energy=-4.943689D-04
 GradGradGradGradGradGradGradGradGradGradGradGradGradGradGradGradGradGrad

 Leave Link  103 at Fri Dec 14 16:28:47 2012, MaxMem=  346030080 cpu:      81.6
 (Enter /afs/physto.se/common/scratch/odelius/x86_64//g03root/g03/l202.exe)
                          Input orientation:                          
 ---------------------------------------------------------------------
 Center     Atomic     Atomic              Coordinates (Angstroms)
 Number     Number      Type              X           Y           Z
 ---------------------------------------------------------------------
[...]
     66   4                                                                66      8          55                2               087  
     77   1                                                                43      6          72                7               547  
 
     XX   X                                                                XX      X          XX                X               XXX  
                                                                                                                X                    
                                                                                                                X                    
                                                                                                                X                    
                                                                                                                X                    
                                                                                                                X                    
                                                                                                                X                    
                                                                                                                X                    
                                                                                                                X                    
                                                                                                                X                    
                                                                                                                X                    
                                                                                                                X                    
                                                                                                                X                    
                                                                                                                X                    
                                                                                                                X                    
                                                                                                                X                    
                                                                                                                X                    
                                                                                                                X                    
                                                                                                                X                    
                                                                                                                X                    
 
 ***** Axes restored to original set *****
 -------------------------------------------------------------------
 Center     Atomic                   Forces (Hartrees/Bohr)
 Number     Number              X              Y              Z
 -------------------------------------------------------------------
    1          6          -0.000021857    0.000396965    0.000000000
    2          1           0.000162991   -0.000203088    0.000000000
    3          1          -0.000071253   -0.000163339   -0.000140539
    4          1          -0.000071253   -0.000163339    0.000140539
    5         17           0.000039109    0.000152744    0.000000000
    6         35          -0.000037736   -0.000019942    0.000000000
 -------------------------------------------------------------------
 Cartesian Forces:  Max     0.000396965 RMS     0.000140548
 Force constants in Cartesian coordinates: 
                1             2             3             4             5
      1  0.602761D+00
      2  0.698562D-02  0.221965D+00
      3  0.000000D+00  0.000000D+00  0.602549D+00
      4 -0.331703D+00  0.795034D-01  0.000000D+00  0.344254D+00
      5  0.818744D-01 -0.522715D-01  0.000000D+00 -0.830005D-01  0.667433D-01
      6  0.000000D+00  0.000000D+00 -0.499485D-01  0.000000D+00  0.000000D+00
      7 -0.118049D+00 -0.433763D-01 -0.119324D+00 -0.108792D-01 -0.898014D-02
      8 -0.445653D-01 -0.569257D-01 -0.771708D-01  0.400920D-02  0.464601D-02
      9 -0.119339D+00 -0.752228D-01 -0.258859D+00  0.245859D-02 -0.893850D-05
     10 -0.118049D+00 -0.433763D-01  0.119324D+00 -0.108792D-01 -0.898014D-02
     11 -0.445653D-01 -0.569257D-01  0.771708D-01  0.400920D-02  0.464601D-02
     12  0.119339D+00  0.752228D-01 -0.258859D+00 -0.245859D-02  0.893850D-05
     13 -0.330935D-01  0.494017D-03  0.000000D+00  0.784585D-02  0.183770D-01
     14  0.411884D-03 -0.601586D-01  0.000000D+00 -0.592409D-02 -0.221804D-01
     15  0.000000D+00  0.000000D+00 -0.330738D-01  0.000000D+00  0.000000D+00
     16 -0.186620D-02 -0.230430D-03  0.000000D+00  0.136145D-02  0.709416D-03
     17 -0.141281D-03  0.431621D-02  0.000000D+00  0.140283D-02 -0.158350D-02
     18  0.000000D+00  0.000000D+00 -0.180788D-02  0.000000D+00  0.000000D+00
                6             7             8             9            10
      6  0.461595D-01
      7 -0.255049D-01  0.118643D+00
      8  0.700188D-02  0.447833D-01  0.717360D-01
      9  0.224027D-02  0.126430D+00  0.783894D-01  0.267504D+00
     10  0.255049D-01  0.873831D-02  0.444576D-02 -0.138036D-01  0.118643D+00
     11 -0.700188D-02  0.444576D-02  0.477350D-02 -0.775769D-02  0.447833D-01
     12  0.224027D-02  0.138036D-01  0.775769D-02 -0.176598D-01 -0.126430D+00
     13  0.000000D+00  0.226097D-02 -0.849582D-02  0.335080D-02  0.226097D-02
     14  0.000000D+00  0.365230D-02 -0.224729D-01  0.562233D-02  0.365230D-02
     15  0.151118D-03  0.371465D-02 -0.154316D-01  0.611059D-02 -0.371465D-02
     16  0.000000D+00 -0.713865D-03 -0.177088D-03  0.902811D-03 -0.713865D-03
     17  0.000000D+00 -0.524893D-03 -0.175693D-02 -0.102232D-02 -0.524893D-03
     18 -0.842663D-03  0.880199D-03 -0.546593D-03  0.664512D-03 -0.880199D-03
               11            12            13            14            15
     11  0.717360D-01
     12 -0.783894D-01  0.267504D+00
     13 -0.849582D-02 -0.335080D-02  0.193492D-01
     14 -0.224729D-01 -0.562233D-02 -0.218209D-02  0.139499D+00
     15  0.154316D-01  0.611059D-02  0.000000D+00  0.000000D+00  0.193302D-01
     16 -0.177088D-03 -0.902811D-03  0.137645D-02  0.389701D-03  0.000000D+00
     17 -0.175693D-02  0.102232D-02  0.302745D-03 -0.122138D-01  0.000000D+00
     18  0.546593D-03  0.664512D-03  0.000000D+00  0.000000D+00  0.137132D-02
               16            17            18
     16  0.556033D-03
     17 -0.514511D-03  0.129949D-01
     18  0.000000D+00  0.000000D+00 -0.497923D-04
 Force constants in internal coordinates: 
                1             2             3             4             5
      1  0.336108D+00
      2 -0.133879D-01  0.336317D+00
      3 -0.133879D-01 -0.132536D-01  0.336317D+00
      4  0.166510D-02  0.178443D-02  0.178443D-02  0.139538D+00
      5 -0.130945D-02 -0.199903D-02 -0.199903D-02  0.311059D-01  0.236705D-01
      6  0.501395D-02  0.248084D-02  0.248084D-02 -0.698779D-02 -0.665453D-02
      7  0.251429D-02  0.572590D-02  0.255724D-02 -0.693444D-02 -0.668475D-02
      8  0.251429D-02  0.255724D-02  0.572590D-02 -0.693444D-02 -0.668475D-02
      9  0.186163D-02  0.152209D-02 -0.131106D-02 -0.166833D-01 -0.133725D-01
     10  0.186163D-02 -0.131106D-02  0.152209D-02 -0.166833D-01 -0.133725D-01
     11 -0.326754D-02  0.532884D-04  0.532884D-04  0.176979D-01  0.141046D-01
     12 -0.852276D-03  0.153594D-02  0.153594D-02 -0.168165D-01 -0.132032D-01
     13  0.115254D-03 -0.197582D-02  0.748271D-04  0.176932D-01  0.140766D-01
     14  0.115254D-03  0.748271D-04 -0.197582D-02  0.176932D-01  0.140766D-01
     15  0.490397D-01  0.489530D-01 -0.460710D-02 -0.229146D-02 -0.264009D-02
     16  0.490397D-01 -0.460710D-02  0.489530D-01 -0.229146D-02 -0.264009D-02
     17 -0.451367D-02  0.488256D-01  0.488256D-01 -0.230077D-02 -0.270137D-02
     18 -0.438446D-02  0.234697D-02  0.234697D-02  0.223095D-05  0.180144D-04
     19  0.000000D+00 -0.426642D-02  0.426642D-02  0.000000D+00  0.000000D+00
                6             7             8             9            10
      6  0.635500D-02
      7  0.187501D-02  0.642259D-02
      8  0.187501D-02  0.209359D-02  0.642259D-02
      9  0.354398D-02  0.385267D-02  0.595317D-02  0.833429D-01
     10  0.354398D-02  0.595317D-02  0.385267D-02 -0.301535D-01  0.833429D-01
     11 -0.132920D-01 -0.396403D-03 -0.396403D-03 -0.801334D-02 -0.801334D-02
     12  0.610668D-02  0.349240D-02  0.349240D-02 -0.300276D-01 -0.300276D-01
     13 -0.330319D-03 -0.135456D-01 -0.127477D-03 -0.758232D-02 -0.892718D-02
     14 -0.330319D-03 -0.127477D-03 -0.135456D-01 -0.892718D-02 -0.758232D-02
     15  0.145477D-02  0.161677D-02  0.183004D-02  0.179904D-01 -0.691104D-02
     16  0.145477D-02  0.183004D-02  0.161677D-02 -0.691104D-02  0.179904D-01
     17  0.185380D-02  0.153763D-02  0.153763D-02 -0.692798D-02 -0.692798D-02
     18 -0.720029D-02  0.355311D-02  0.355311D-02 -0.174274D-03 -0.174274D-03
     19  0.000000D+00 -0.655852D-02  0.655852D-02 -0.633153D-04  0.633153D-04
               11            12            13            14            15
     11  0.507133D-01
     12 -0.881233D-02  0.839792D-01
     13 -0.122285D-01 -0.822535D-02  0.506579D-01
     14 -0.122285D-01 -0.822535D-02 -0.122555D-01  0.506579D-01
     15 -0.147651D-02 -0.686168D-02 -0.112800D-02 -0.186176D-02  0.185850D-01
     16 -0.147651D-02 -0.686168D-02 -0.186176D-02 -0.112800D-02  0.508951D-02
     17 -0.182615D-02  0.180532D-01 -0.130198D-02 -0.130198D-02  0.506283D-02
     18  0.377971D-01  0.233786D-03 -0.188460D-01 -0.188460D-01 -0.163395D-03
     19  0.000000D+00  0.000000D+00  0.325650D-01 -0.325650D-01 -0.292093D-03
               16            17            18            19
     16  0.185850D-01
     17  0.506283D-02  0.184906D-01
     18 -0.163395D-03  0.373505D-03  0.343280D-01
     19  0.292093D-03  0.000000D+00  0.000000D+00  0.340067D-01
 Leave Link  716 at Fri Dec 14 16:35:52 2012, MaxMem=  346030080 cpu:       6.3
 (Enter /afs/physto.se/common/scratch/odelius/x86_64//g03root/g03/l103.exe)

 GradGradGradGradGradGradGradGradGradGradGradGradGradGradGradGradGradGrad
 Berny optimization.
 Internal  Forces:  Max     0.000197013 RMS     0.000104892
 Search for a local minimum.
 Step number   1 out of a maximum of   2
 All quantities printed in internal units (Hartrees-Bohrs-Radians)
 Second derivative matrix not updated -- analytic derivatives used.
 The second derivative matrix:
                          R1        R2        R3        R4        R5
           R1           0.33611
           R2          -0.01339   0.33632
           R3          -0.01339  -0.01325   0.33632
           R4           0.00167   0.00178   0.00178   0.13954
           R5          -0.00131  -0.00200  -0.00200   0.03111   0.02367
           R6           0.00501   0.00248   0.00248  -0.00699  -0.00665
           R7           0.00251   0.00573   0.00256  -0.00693  -0.00668
           R8           0.00251   0.00256   0.00573  -0.00693  -0.00668
           A1           0.00186   0.00152  -0.00131  -0.01668  -0.01337
           A2           0.00186  -0.00131   0.00152  -0.01668  -0.01337
           A3          -0.00327   0.00005   0.00005   0.01770   0.01410
           A4          -0.00085   0.00154   0.00154  -0.01682  -0.01320
           A5           0.00012  -0.00198   0.00007   0.01769   0.01408
           A6           0.00012   0.00007  -0.00198   0.01769   0.01408
           A7           0.04904   0.04895  -0.00461  -0.00229  -0.00264
           A8           0.04904  -0.00461   0.04895  -0.00229  -0.00264
           A9          -0.00451   0.04883   0.04883  -0.00230  -0.00270
           A10         -0.00438   0.00235   0.00235   0.00000   0.00002
           A11          0.00000  -0.00427   0.00427   0.00000   0.00000
                          R6        R7        R8        A1        A2
           R6           0.00636
           R7           0.00188   0.00642
           R8           0.00188   0.00209   0.00642
           A1           0.00354   0.00385   0.00595   0.08334
           A2           0.00354   0.00595   0.00385  -0.03015   0.08334
           A3          -0.01329  -0.00040  -0.00040  -0.00801  -0.00801
           A4           0.00611   0.00349   0.00349  -0.03003  -0.03003
           A5          -0.00033  -0.01355  -0.00013  -0.00758  -0.00893
           A6          -0.00033  -0.00013  -0.01355  -0.00893  -0.00758
           A7           0.00145   0.00162   0.00183   0.01799  -0.00691
           A8           0.00145   0.00183   0.00162  -0.00691   0.01799
           A9           0.00185   0.00154   0.00154  -0.00693  -0.00693
           A10         -0.00720   0.00355   0.00355  -0.00017  -0.00017
           A11          0.00000  -0.00656   0.00656  -0.00006   0.00006
                          A3        A4        A5        A6        A7
           A3           0.05071
           A4          -0.00881   0.08398
           A5          -0.01223  -0.00823   0.05066
           A6          -0.01223  -0.00823  -0.01226   0.05066
           A7          -0.00148  -0.00686  -0.00113  -0.00186   0.01859
           A8          -0.00148  -0.00686  -0.00186  -0.00113   0.00509
           A9          -0.00183   0.01805  -0.00130  -0.00130   0.00506
           A10          0.03780   0.00023  -0.01885  -0.01885  -0.00016
           A11          0.00000   0.00000   0.03257  -0.03257  -0.00029
                          A8        A9        A10       A11
           A8           0.01859
           A9           0.00506   0.01849
           A10         -0.00016   0.00037   0.03433
           A11          0.00029   0.00000   0.00000   0.03401
     Eigenvalues ---    0.00164   0.00212   0.00324   0.04846   0.09925
     Eigenvalues ---    0.09941   0.11867   0.11885   0.17136   0.33833
     Eigenvalues ---    0.35825   0.358251000.000001000.000001000.00000
     Eigenvalues --- 1000.000001000.000001000.000001000.00000
 Angle between quadratic step and forces=  70.00 degrees.
 Linear search not attempted -- first point.
 Iteration  1 RMS(Cart)=  0.00221290 RMS(Int)=  0.00000321
 Iteration  2 RMS(Cart)=  0.00000225 RMS(Int)=  0.00000100
 Iteration  3 RMS(Cart)=  0.00000000 RMS(Int)=  0.00000100
 Variable       Old X    -DE/DX   Delta X   Delta X   Delta X     New X
                                 (Linear)    (Quad)   (Total)
    R1        2.04905  -0.00020   0.00000  -0.00066  -0.00066   2.04839
    R2        2.04909  -0.00019   0.00000  -0.00067  -0.00067   2.04842
    R3        2.04909  -0.00019   0.00000  -0.00067  -0.00067   2.04842
    R4        3.54366  -0.00015   0.00000   0.00037   0.00037   3.54403
    R5        5.96999  -0.00014   0.00000  -0.00263  -0.00264   5.96735
    R6        5.65959   0.00005   0.00000   0.00609   0.00609   5.66568
    R7        5.69031   0.00003   0.00000  -0.00316  -0.00316   5.68715
    R8        5.69031   0.00003   0.00000  -0.00316  -0.00316   5.68715
    A1        1.93504   0.00009   0.00000   0.00126   0.00126   1.93631
    A2        1.93504   0.00009   0.00000   0.00126   0.00126   1.93631
    A3        1.88611  -0.00008   0.00000  -0.00148  -0.00148   1.88463
    A4        1.93474   0.00007   0.00000   0.00084   0.00083   1.93557
    A5        1.88542  -0.00009   0.00000  -0.00104  -0.00104   1.88438
    A6        1.88542  -0.00009   0.00000  -0.00104  -0.00104   1.88438
    A7        0.60378  -0.00005   0.00000  -0.00008  -0.00008   0.60370
    A8        0.60378  -0.00005   0.00000  -0.00008  -0.00008   0.60370
    A9        0.60206  -0.00005   0.00000   0.00032   0.00032   0.60238
   A10        3.13207   0.00001   0.00000   0.00271   0.00271   3.13477
   A11        3.14159   0.00000   0.00000   0.00000   0.00000   3.14159
         Item               Value     Threshold  Converged?
 Maximum Force            0.000197     0.000450     YES
 RMS     Force            0.000105     0.000300     YES
 Maximum Displacement     0.005100     0.001800     NO 
 RMS     Displacement     0.002213     0.001200     NO 
 Predicted change in Energy=-7.046556D-07
 GradGradGradGradGradGradGradGradGradGradGradGradGradGradGradGradGradGrad

 Leave Link  103 at Fri Dec 14 16:36:01 2012, MaxMem=  346030080 cpu:       0.2
 (Enter /afs/physto.se/common/scratch/odelius/x86_64//g03root/g03/l9999.exe)
 1\1\GINC-QCMDLX10\Freq\RB3LYP\6-31G(d,p)\C1H3Br1Cl1(1-)\TK\14-Dec-2012
 \0\\#P GEOM=ALLCHECK GUESS=READ SCRF=CHECK GENCHK RB3LYP/6-31G(D,P) FR
 EQ\\Reactant. CONTINUING FROM: reac.log\\-1,1\C,0.0408081664,-1.305951
 2881,0.\H,-0.9959383864,-0.9883270713,0.\H,0.5504535268,-0.961155045,0
 .8928342882\H,0.5504535268,-0.961155045,-0.8928342882\Cl,0.0746157717,
 -3.1808698015,0.\Br,-0.0462367367,1.852032329,0.\\Version=x86-Linux-G0
 3RevB.04\State=1-A'\HF=-3071.895928\RMSD=3.708e-10\RMSF=1.405e-04\Dipo
 le=0.0436222,-1.4848872,0.\DipoleDeriv=0.0706505,-0.0345418,0.,-0.0390
 056,1.8597537,0.,0.,0.,0.0724156,-0.01512,0.0069784,0.,0.0264495,0.018
 1046,0.,0.,0.,0.0815532,0.0574273,-0.0047579,-0.0420911,-0.0139196,0.0
 126346,-0.0248881,-0.0422479,-0.0087377,0.0078244,0.0574273,-0.0047579
 ,0.0420911,-0.0139196,0.0126346,0.0248881,0.0422479,0.0087377,0.007824
 4,-0.3036926,0.0255881,0.,0.0299913,-1.6137994,0.,0.,0.,-0.3032246,-0.
 8666925,0.0114912,0.,0.0104039,-1.2893279,0.,0.,0.,-0.8663929\Polar=29
 .8443502,-1.2835078,84.3856783,0.,0.,29.8208338\PG=CS [SG(C1H1Br1Cl1),
 X(H2)]\NImag=0\\0.60276097,0.00698562,0.22196534,0.,0.,0.60254858,-0.3
 3170281,0.07950340,0.,0.34425401,0.08187443,-0.05227146,0.,-0.08300054
 ,0.06674334,0.,0.,-0.04994850,0.,0.,0.04615950,-0.11804924,-0.04337630
 ,-0.11932360,-0.01087925,-0.00898014,-0.02550494,0.11864308,-0.0445653
 2,-0.05692573,-0.07717083,0.00400920,0.00464601,0.00700188,0.04478328,
 0.07173605,-0.11933867,-0.07522283,-0.25885921,0.00245859,-0.00000894,
 0.00224027,0.12643008,0.07838945,0.26750361,-0.11804924,-0.04337630,0.
 11932360,-0.01087925,-0.00898014,0.02550494,0.00873831,0.00444576,-0.0
 1380362,0.11864308,-0.04456532,-0.05692573,0.07717083,0.00400920,0.004
 64601,-0.00700188,0.00444576,0.00477350,-0.00775769,0.04478328,0.07173
 605,0.11933867,0.07522283,-0.25885921,-0.00245859,0.00000894,0.0022402
 7,0.01380362,0.00775769,-0.01765978,-0.12643008,-0.07838945,0.26750361
 ,-0.03309347,0.00049402,0.,0.00784585,0.01837698,0.,0.00226097,-0.0084
 9582,0.00335080,0.00226097,-0.00849582,-0.00335080,0.01934923,0.000411
 88,-0.06015863,0.,-0.00592409,-0.02218041,0.,0.00365230,-0.02247289,0.
 00562233,0.00365230,-0.02247289,-0.00562233,-0.00218209,0.13949860,0.,
 0.,-0.03307379,0.,0.,0.00015112,0.00371465,-0.01543159,0.00611059,-0.0
 0371465,0.01543159,0.00611059,0.,0.,0.01933018,-0.00186620,-0.00023043
 ,0.,0.00136145,0.00070942,0.,-0.00071387,-0.00017709,0.00090281,-0.000
 71387,-0.00017709,-0.00090281,0.00137645,0.00038970,0.,0.00055603,-0.0
 0014128,0.00431621,0.,0.00140283,-0.00158350,0.,-0.00052489,-0.0017569
 3,-0.00102232,-0.00052489,-0.00175693,0.00102232,0.00030274,-0.0122137
 8,0.,-0.00051451,0.01299495,0.,0.,-0.00180788,0.,0.,-0.00084266,0.0008
 8020,-0.00054659,0.00066451,-0.00088020,0.00054659,0.00066451,0.,0.,0.
 00137132,0.,0.,-0.00004979\\0.00002186,-0.00039697,0.,-0.00016299,0.00
 020309,0.,0.00007125,0.00016334,0.00014054,0.00007125,0.00016334,-0.00
 014054,-0.00003911,-0.00015274,0.,0.00003774,0.00001994,0.\\\@


 THERE ONCE WAS A GIRL NAMED IRENE,
 WHO LIVED ON DISTILLED KEROSENE,
      BUT SHE STARTED ABSORBIN'
      A NEW HYDROCARBON,
 AND SINCE THEN HAS NEVER BENZENE.
 Job cpu time:  0 days  0 hours  2 minutes  4.5 seconds.
 File lengths (MBytes):  RWF=     13 Int=      0 D2E=      0 Chk=      4 Scr=      1
 Normal termination of Gaussian 03 at Fri Dec 14 16:36:27 2012.
