 Entering Gaussian System, Link 0=g03
 Input=cl.com
 Output=cl.log
 Initial command:
 /afs/physto.se/common/scratch/odelius/x86_64//g03root/g03/l1.exe /data3/tk/scrg03/Gau-18742.inp -scrdir=/data3/tk/scrg03/
 Entering Link 1 = /afs/physto.se/common/scratch/odelius/x86_64//g03root/g03/l1.exe PID=     18744.
  
 Copyright (c) 1988,1990,1992,1993,1995,1998,2003, Gaussian, Inc.
                  All Rights Reserved.
  
 This is the Gaussian(R) 03 program.  It is based on the
 the Gaussian(R) 98 system (copyright 1998, Gaussian, Inc.),
 the Gaussian(R) 94 system (copyright 1995, Gaussian, Inc.),
 the Gaussian 92(TM) system (copyright 1992, Gaussian, Inc.),
 the Gaussian 90(TM) system (copyright 1990, Gaussian, Inc.),
 the Gaussian 88(TM) system (copyright 1988, Gaussian, Inc.),
 the Gaussian 86(TM) system (copyright 1986, Carnegie Mellon
 University), and the Gaussian 82(TM) system (copyright 1983,
 Carnegie Mellon University). Gaussian is a federally registered
 trademark of Gaussian, Inc.
  
 This software contains proprietary and confidential information,
 including trade secrets, belonging to Gaussian, Inc.
  
 This software is provided under written license and may be
 used, copied, transmitted, or stored only in accord with that
 written license.
  
 The following legend is applicable only to US Government
 contracts under DFARS:
  
                    RESTRICTED RIGHTS LEGEND
  
 Use, duplication or disclosure by the US Government is subject
 to restrictions as set forth in subparagraph (c)(1)(ii) of the
 Rights in Technical Data and Computer Software clause at DFARS
 252.227-7013.
  
 Gaussian, Inc.
 Carnegie Office Park, Building 6, Pittsburgh, PA 15106 USA
  
 The following legend is applicable only to US Government
 contracts under FAR:
  
                    RESTRICTED RIGHTS LEGEND
  
 Use, reproduction and disclosure by the US Government is subject
 to restrictions as set forth in subparagraph (c) of the
 Commercial Computer Software - Restricted Rights clause at FAR
 52.227-19.
  
 Gaussian, Inc.
 Carnegie Office Park, Building 6, Pittsburgh, PA 15106 USA
  
  
 ---------------------------------------------------------------
 Warning -- This program may not be used in any manner that
 competes with the business of Gaussian, Inc. or will provide
 assistance to any competitor of Gaussian, Inc.  The licensee
 of this program is prohibited from giving any competitor of
 Gaussian, Inc. access to this program.  By using this program,
 the user acknowledges that Gaussian, Inc. is engaged in the
 business of creating and licensing software in the field of
 computational chemistry and represents and warrants to the
 licensee that it is not a competitor of Gaussian, Inc. and that
 it will not use this program in any manner prohibited above.
 ---------------------------------------------------------------
  

 Cite this work as:
 Gaussian 03, Revision B.04,
 M. J. Frisch, G. W. Trucks, H. B. Schlegel, G. E. Scuseria, 
 M. A. Robb, J. R. Cheeseman, J. A. Montgomery, Jr., T. Vreven, 
 K. N. Kudin, J. C. Burant, J. M. Millam, S. S. Iyengar, J. Tomasi, 
 V. Barone, B. Mennucci, M. Cossi, G. Scalmani, N. Rega, 
 G. A. Petersson, H. Nakatsuji, M. Hada, M. Ehara, K. Toyota, 
 R. Fukuda, J. Hasegawa, M. Ishida, T. Nakajima, Y. Honda, O. Kitao, 
 H. Nakai, M. Klene, X. Li, J. E. Knox, H. P. Hratchian, J. B. Cross, 
 C. Adamo, J. Jaramillo, R. Gomperts, R. E. Stratmann, O. Yazyev, 
 A. J. Austin, R. Cammi, C. Pomelli, J. W. Ochterski, P. Y. Ayala, 
 K. Morokuma, G. A. Voth, P. Salvador, J. J. Dannenberg, 
 V. G. Zakrzewski, S. Dapprich, A. D. Daniels, M. C. Strain, 
 O. Farkas, D. K. Malick, A. D. Rabuck, K. Raghavachari, 
 J. B. Foresman, J. V. Ortiz, Q. Cui, A. G. Baboul, S. Clifford, 
 J. Cioslowski, B. B. Stefanov, G. Liu, A. Liashenko, P. Piskorz, 
 I. Komaromi, R. L. Martin, D. J. Fox, T. Keith, M. A. Al-Laham, 
 C. Y. Peng, A. Nanayakkara, M. Challacombe, P. M. W. Gill, 
 B. Johnson, W. Chen, M. W. Wong, C. Gonzalez, and J. A. Pople, 
 Gaussian, Inc., Pittsburgh PA, 2003.
 
 *********************************************
 Gaussian 03:  x86-Linux-G03RevB.04 2-Jun-2003
                  14-Dec-2012 
 *********************************************
 %mem=330MW
 %nprocshared=4
 Will use up to    4 processors via shared memory.
 ----------------------------
 #p opt freq b3lyp 6-31G(d,p)
 ----------------------------
 1/14=-1,18=20,26=3,38=1/1,3;
 2/9=110,17=6,18=5,40=1/2;
 3/5=1,6=6,7=101,11=2,16=1,25=1,30=1,74=-5/1,2,3;
 4//1;
 5/5=2,38=5/2;
 6/7=2,8=2,9=2,10=2,28=1/1;
 7//1,2,3,16;
 1/14=-1,18=20/3(1);
 99//99;
 2/9=110/2;
 3/5=1,6=6,7=101,11=2,16=1,25=1,30=1,74=-5/1,2,3;
 4/5=5,16=3/1;
 5/5=2,38=5/2;
 7//1,2,3,16;
 1/14=-1,18=20/3(-5);
 2/9=110/2;
 6/7=2,8=2,9=2,10=2,19=2,28=1/1;
 99/9=1/99;
 Leave Link    1 at Fri Dec 14 16:19:34 2012, MaxMem=  346030080 cpu:       0.3
 (Enter /afs/physto.se/common/scratch/odelius/x86_64//g03root/g03/l101.exe)
 -----------------------------------
 Reactant. CONTINUING FROM: reac.log
 -----------------------------------
 Symbolic Z-matrix:
 Charge = -1 Multiplicity = 1
 Cl                    0.        0.        0. 
 
                    Isotopes and Nuclear Properties:

  Atom         1
 IAtWgt=          35
 AtmWgt=  34.9688527
 IAtSpn=           3
 AtZEff=   0.0000000
 AtQMom=  -8.2490000
 AtGFac=   0.8218740
 Leave Link  101 at Fri Dec 14 16:19:36 2012, MaxMem=  346030080 cpu:       0.1
 (Enter /afs/physto.se/common/scratch/odelius/x86_64//g03root/g03/l103.exe)

 GradGradGradGradGradGradGradGradGradGradGradGradGradGradGradGradGradGrad
 Berny optimization.
 Initialization pass.
 No Z-matrix variables, so optimization will use Cartesian coordinates.
 Trust Radius=1.00D-01 FncErr=1.00D-07 GrdErr=1.00D-06
 Number of steps in this run=  20 maximum allowed number of steps= 100.
 GradGradGradGradGradGradGradGradGradGradGradGradGradGradGradGradGradGrad

 Leave Link  103 at Fri Dec 14 16:19:37 2012, MaxMem=  346030080 cpu:       0.1
 (Enter /afs/physto.se/common/scratch/odelius/x86_64//g03root/g03/l202.exe)
                          Input orientation:                          
 ---------------------------------------------------------------------
 Center     Atomic     Atomic              Coordinates (Angstroms)
 Number     Number      Type              X           Y           Z
 ---------------------------------------------------------------------
    1         17             0        0.000000    0.000000    0.000000
 ---------------------------------------------------------------------
 Stoichiometry    Cl(1-)
 Framework group  OH[O(Cl)]
 Deg. of freedom     0
 Full point group                 OH      NOp  48
 Largest Abelian subgroup         D2H     NOp   8
 Largest concise Abelian subgroup C1      NOp   1
                         Standard orientation:                         
 ---------------------------------------------------------------------
 Center     Atomic     Atomic              Coordinates (Angstroms)
 Number     Number      Type              X           Y           Z
 ---------------------------------------------------------------------
    1         17             0        0.000000    0.000000    0.000000
 ---------------------------------------------------------------------
 Leave Link  202 at Fri Dec 14 16:19:39 2012, MaxMem=  346030080 cpu:       0.1
 (Enter /afs/physto.se/common/scratch/odelius/x86_64//g03root/g03/l301.exe)
 Standard basis: 6-31G(d,p) (6D, 7F)
 There are     7 symmetry adapted basis functions of AG  symmetry.
 There are     1 symmetry adapted basis functions of B1G symmetry.
 There are     1 symmetry adapted basis functions of B2G symmetry.
 There are     1 symmetry adapted basis functions of B3G symmetry.
 There are     0 symmetry adapted basis functions of AU  symmetry.
 There are     3 symmetry adapted basis functions of B1U symmetry.
 There are     3 symmetry adapted basis functions of B2U symmetry.
 There are     3 symmetry adapted basis functions of B3U symmetry.
 Integral buffers will be    262144 words long.
 Raffenetti 2 integral format.
 Two-electron integral symmetry is turned on.
    19 basis functions,    52 primitive gaussians,    19 cartesian basis functions
     9 alpha electrons        9 beta electrons
       nuclear repulsion energy         0.0000000000 Hartrees.
 IExCor= 402 DFT=T Ex=B+HF Corr=LYP ExCW=0 ScaHFX=  0.200000
 ScaDFX=  0.800000  0.720000  1.000000  0.810000
 IRadAn=      0 IRanWt=     -1 IRanGd=            0 ICorTp=0
 NAtoms=    1 NActive=    1 NUniq=    1 SFac= 1.00D+00 NAtFMM=   60 Big=F
 Leave Link  301 at Fri Dec 14 16:19:41 2012, MaxMem=  346030080 cpu:       1.9
 (Enter /afs/physto.se/common/scratch/odelius/x86_64//g03root/g03/l302.exe)
 NPDir=0 NMtPBC=     1 NCelOv=     1 NCel=       1 NClECP=     1 NCelD=      1
         NCelK=      1 NCelE2=     1 NClLst=     1 CellRange=     0.0.
 One-electron integrals computed using PRISM.
 NBasis=    19 RedAO= T  NBF=     7     1     1     1     0     3     3     3
 NBsUse=    19 1.00D-06 NBFU=     7     1     1     1     0     3     3     3
 Precomputing XC quadrature grid using
 IXCGrd= 2 IRadAn=           0 IRanWt=          -1 IRanGd=           0.
 NRdTot=      58 NPtTot=        7218 NUsed=        7482 NTot=        7498
 NSgBfM=    19    19    19    19.
 Leave Link  302 at Fri Dec 14 16:20:14 2012, MaxMem=  346030080 cpu:      24.3
 (Enter /afs/physto.se/common/scratch/odelius/x86_64//g03root/g03/l303.exe)
 DipDrv:  MaxL=1.
 Leave Link  303 at Fri Dec 14 16:20:16 2012, MaxMem=  346030080 cpu:       0.0
 (Enter /afs/physto.se/common/scratch/odelius/x86_64//g03root/g03/l401.exe)
 Harris functional with IExCor=  402 diagonalized for initial guess.
 ExpMin= 1.43D-01 ExpMax= 2.52D+04 ExpMxC= 3.78D+03 IAcc=1 IRadAn=         1 AccDes= 1.00D-06
 HarFok:  IExCor= 402 AccDes= 1.00D-06 IRadAn=         1 IDoV=1
 ScaDFX=  1.000000  1.000000  1.000000  1.000000
 Harris En= -460.424586289529    
 Initial guess orbital symmetries:
       Occupied  (A1G) (A1G) (T1U) (T1U) (T1U) (A1G) (T1U) (T1U)
                 (T1U)
       Virtual   (A1G) (T1U) (T1U) (T1U) (EG) (EG) (T2G) (T2G)
                 (T2G) (A1G)
 The electronic state of the initial guess is 1-A1G.
 Leave Link  401 at Fri Dec 14 16:20:18 2012, MaxMem=  346030080 cpu:       0.1
 (Enter /afs/physto.se/common/scratch/odelius/x86_64//g03root/g03/l502.exe)
 Closed shell SCF:
 Requested convergence on RMS density matrix=1.00D-08 within 128 cycles.
 Requested convergence on MAX density matrix=1.00D-06.
 Requested convergence on             energy=1.00D-06.
 No special actions if energy rises.
 Using DIIS extrapolation, IDIIS=  1040.
 Integral symmetry usage will be decided dynamically.
         7481 words used for storage of precomputed grid.
 Keep R1 integrals in memory in canonical form, NReq=      478318.
 IEnd=     26358 IEndB=     26358 NGot= 346030080 MDV= 346002666
 LenX= 346002666
 Symmetry not used in FoFDir.
 MinBra= 0 MaxBra= 2 Meth= 1.
 IRaf=       0 NMat=   1 IRICut=       1 DoRegI=T DoRafI=F ISym2E= 0 JSym2E=0.
 Integral accuracy reduced to 1.0D-05 until final iterations.

 Cycle   1  Pass 0  IDiag  1:
 E= -460.195879691859    
 DIIS: error= 4.37D-02 at cycle   1 NSaved=   1.
 NSaved= 1 IEnMin= 1 EnMin= -460.195879691859     IErMin= 1 ErrMin= 4.37D-02
 ErrMax= 4.37D-02 EMaxC= 1.00D-01 BMatC= 4.09D-02 BMatP= 4.09D-02
 IDIUse=3 WtCom= 5.63D-01 WtEn= 4.37D-01
 Coeff-Com:  0.100D+01
 Coeff-En:   0.100D+01
 Coeff:      0.100D+01
 Gap=     0.578 Goal=   None    Shift=    0.000
 GapD=    0.578 DampG=2.000 DampE=0.500 DampFc=1.0000 IDamp=-1.
 RMSDP=3.30D-02 MaxDP=2.37D-01              OVMax= 8.25D-02

 Cycle   2  Pass 0  IDiag  1:
 E= -460.201613313379     Delta-E=       -0.005733621520 Rises=F Damp=F
 DIIS: error= 3.79D-02 at cycle   2 NSaved=   2.
 NSaved= 2 IEnMin= 2 EnMin= -460.201613313379     IErMin= 2 ErrMin= 3.79D-02
 ErrMax= 3.79D-02 EMaxC= 1.00D-01 BMatC= 4.55D-02 BMatP= 4.09D-02
 IDIUse=2 WtCom= 0.00D+00 WtEn= 1.00D+00
 Coeff-En:   0.472D+00 0.528D+00
 Coeff:      0.472D+00 0.528D+00
 Gap=     0.624 Goal=   None    Shift=    0.000
 RMSDP=1.70D-02 MaxDP=1.35D-01 DE=-5.73D-03 OVMax= 4.36D-02

 Cycle   3  Pass 0  IDiag  1:
 E= -460.252140687277     Delta-E=       -0.050527373898 Rises=F Damp=F
 DIIS: error= 1.93D-03 at cycle   3 NSaved=   3.
 NSaved= 3 IEnMin= 3 EnMin= -460.252140687277     IErMin= 3 ErrMin= 1.93D-03
 ErrMax= 1.93D-03 EMaxC= 1.00D-01 BMatC= 9.34D-05 BMatP= 4.09D-02
 IDIUse=3 WtCom= 9.81D-01 WtEn= 1.93D-02
 Coeff-Com:  0.231D-01 0.613D-01 0.916D+00
 Coeff-En:   0.000D+00 0.000D+00 0.100D+01
 Coeff:      0.226D-01 0.601D-01 0.917D+00
 Gap=     0.628 Goal=   None    Shift=    0.000
 RMSDP=7.52D-04 MaxDP=5.73D-03 DE=-5.05D-02 OVMax= 1.62D-03

 Cycle   4  Pass 0  IDiag  1:
 E= -460.252232652555     Delta-E=       -0.000091965278 Rises=F Damp=F
 DIIS: error= 7.07D-05 at cycle   4 NSaved=   4.
 NSaved= 4 IEnMin= 4 EnMin= -460.252232652555     IErMin= 4 ErrMin= 7.07D-05
 ErrMax= 7.07D-05 EMaxC= 1.00D-01 BMatC= 1.53D-07 BMatP= 9.34D-05
 IDIUse=1 WtCom= 1.00D+00 WtEn= 0.00D+00
 Coeff-Com: -0.146D-02-0.412D-02-0.220D-01 0.103D+01
 Coeff:     -0.146D-02-0.412D-02-0.220D-01 0.103D+01
 Gap=     0.629 Goal=   None    Shift=    0.000
 RMSDP=3.28D-05 MaxDP=3.66D-04 DE=-9.20D-05 OVMax= 9.34D-05

 Cycle   5  Pass 0  IDiag  1:
 E= -460.252232796970     Delta-E=       -0.000000144415 Rises=F Damp=F
 DIIS: error= 1.45D-06 at cycle   5 NSaved=   5.
 NSaved= 5 IEnMin= 5 EnMin= -460.252232796970     IErMin= 5 ErrMin= 1.45D-06
 ErrMax= 1.45D-06 EMaxC= 1.00D-01 BMatC= 2.37D-11 BMatP= 1.53D-07
 IDIUse=1 WtCom= 1.00D+00 WtEn= 0.00D+00
 Coeff-Com:  0.860D-05-0.762D-04-0.149D-02 0.149D-01 0.987D+00
 Coeff:      0.860D-05-0.762D-04-0.149D-02 0.149D-01 0.987D+00
 Gap=     0.629 Goal=   None    Shift=    0.000
 RMSDP=2.47D-07 MaxDP=1.69D-06 DE=-1.44D-07 OVMax= 6.25D-07

 Initial convergence to 1.0D-05 achieved.  Increase integral accuracy.
 Cycle   6  Pass 1  IDiag  1:
 E= -460.252233329820     Delta-E=       -0.000000532850 Rises=F Damp=F
 DIIS: error= 7.22D-06 at cycle   1 NSaved=   1.
 NSaved= 1 IEnMin= 1 EnMin= -460.252233329820     IErMin= 1 ErrMin= 7.22D-06
 ErrMax= 7.22D-06 EMaxC= 1.00D-01 BMatC= 5.95D-10 BMatP= 5.95D-10
 IDIUse=1 WtCom= 1.00D+00 WtEn= 0.00D+00
 Coeff-Com:  0.100D+01
 Coeff:      0.100D+01
 Gap=     0.629 Goal=   None    Shift=    0.000
 RMSDP=2.47D-07 MaxDP=1.69D-06 DE=-5.33D-07 OVMax= 7.51D-06

 Cycle   7  Pass 1  IDiag  1:
 E= -460.252233329980     Delta-E=       -0.000000000160 Rises=F Damp=F
 DIIS: error= 2.14D-06 at cycle   2 NSaved=   2.
 NSaved= 2 IEnMin= 2 EnMin= -460.252233329980     IErMin= 2 ErrMin= 2.14D-06
 ErrMax= 2.14D-06 EMaxC= 1.00D-01 BMatC= 1.28D-10 BMatP= 5.95D-10
 IDIUse=1 WtCom= 1.00D+00 WtEn= 0.00D+00
 Coeff-Com:  0.287D+00 0.713D+00
 Coeff:      0.287D+00 0.713D+00
 Gap=     0.629 Goal=   None    Shift=    0.000
 RMSDP=1.21D-06 MaxDP=9.51D-06 DE=-1.60D-10 OVMax= 2.80D-06

 Cycle   8  Pass 1  IDiag  1:
 E= -460.252233330100     Delta-E=       -0.000000000119 Rises=F Damp=F
 DIIS: error= 7.13D-07 at cycle   3 NSaved=   3.
 NSaved= 3 IEnMin= 3 EnMin= -460.252233330100     IErMin= 3 ErrMin= 7.13D-07
 ErrMax= 7.13D-07 EMaxC= 1.00D-01 BMatC= 1.78D-11 BMatP= 1.28D-10
 IDIUse=1 WtCom= 1.00D+00 WtEn= 0.00D+00
 Coeff-Com: -0.743D-02 0.265D+00 0.742D+00
 Coeff:     -0.743D-02 0.265D+00 0.742D+00
 Gap=     0.629 Goal=   None    Shift=    0.000
 RMSDP=3.49D-07 MaxDP=3.16D-06 DE=-1.19D-10 OVMax= 9.19D-07

 Cycle   9  Pass 1  IDiag  1:
 E= -460.252233330120     Delta-E=       -0.000000000020 Rises=F Damp=F
 DIIS: error= 1.67D-08 at cycle   4 NSaved=   4.
 NSaved= 4 IEnMin= 4 EnMin= -460.252233330120     IErMin= 4 ErrMin= 1.67D-08
 ErrMax= 1.67D-08 EMaxC= 1.00D-01 BMatC= 6.24D-15 BMatP= 1.78D-11
 IDIUse=1 WtCom= 1.00D+00 WtEn= 0.00D+00
 Coeff-Com: -0.913D-03 0.838D-02 0.432D-01 0.949D+00
 Coeff:     -0.913D-03 0.838D-02 0.432D-01 0.949D+00
 Gap=     0.629 Goal=   None    Shift=    0.000
 RMSDP=6.49D-09 MaxDP=5.02D-08 DE=-1.98D-11 OVMax= 1.01D-08

 SCF Done:  E(RB+HF-LYP) =  -460.252233330     A.U. after    9 cycles
             Convg  =    0.6493D-08             -V/T =  2.0031
             S**2   =   0.0000
 KE= 4.588108180207D+02 PE=-1.100524391784D+03 EE= 1.814613404333D+02
 Leave Link  502 at Fri Dec 14 16:20:23 2012, MaxMem=  346030080 cpu:       7.5
 (Enter /afs/physto.se/common/scratch/odelius/x86_64//g03root/g03/l601.exe)
 Copying SCF densities to generalized density rwf, ISCF=0 IROHF=0.

 **********************************************************************

            Population analysis using the SCF density.

 **********************************************************************

 Orbital symmetries:
       Occupied  (A1G) (A1G) (T1U) (T1U) (T1U) (A1G) (T1U) (T1U)
                 (T1U)
       Virtual   (A1G) (T1U) (T1U) (T1U) (T2G) (T2G) (T2G) (EG)
                 (EG) (A1G)
 The electronic state is 1-A1G.
 Alpha  occ. eigenvalues -- -101.18571  -9.09721  -6.85522  -6.85522  -6.85522
 Alpha  occ. eigenvalues --   -0.43622   0.01479   0.01479   0.01479
 Alpha virt. eigenvalues --    0.64337   0.73712   0.73712   0.73712   1.22493
 Alpha virt. eigenvalues --    1.22493   1.22493   1.22493   1.22493   4.55944
          Condensed to atoms (all electrons):
              1
     1  Cl  18.000000
 Mulliken atomic charges:
              1
     1  Cl  -1.000000
 Sum of Mulliken charges=  -1.00000
 Atomic charges with hydrogens summed into heavy atoms:
              1
     1  Cl  -1.000000
 Sum of Mulliken charges=  -1.00000
 Electronic spatial extent (au):  <R**2>=    34.9233
 Charge=    -1.0000 electrons
 Dipole moment (field-independent basis, Debye):
    X=     0.0000    Y=     0.0000    Z=     0.0000  Tot=     0.0000
 Quadrupole moment (field-independent basis, Debye-Ang):
   XX=   -15.6577   YY=   -15.6577   ZZ=   -15.6577
   XY=     0.0000   XZ=     0.0000   YZ=     0.0000
 Traceless Quadrupole moment (field-independent basis, Debye-Ang):
   XX=     0.0000   YY=     0.0000   ZZ=     0.0000
   XY=     0.0000   XZ=     0.0000   YZ=     0.0000
 Octapole moment (field-independent basis, Debye-Ang**2):
  XXX=     0.0000  YYY=     0.0000  ZZZ=     0.0000  XYY=     0.0000
  XXY=     0.0000  XXZ=     0.0000  XZZ=     0.0000  YZZ=     0.0000
  YYZ=     0.0000  XYZ=     0.0000
 Hexadecapole moment (field-independent basis, Debye-Ang**3):
 XXXX=   -19.3641 YYYY=   -19.3641 ZZZZ=   -19.3641 XXXY=     0.0000
 XXXZ=     0.0000 YYYX=     0.0000 YYYZ=     0.0000 ZZZX=     0.0000
 ZZZY=     0.0000 XXYY=    -6.4547 XXZZ=    -6.4547 YYZZ=    -6.4547
 XXYZ=     0.0000 YYXZ=     0.0000 ZZXY=     0.0000
 N-N= 0.000000000000D+00 E-N=-1.100524390394D+03  KE= 4.588108180207D+02
 Symmetry AG   KE= 3.231287552911D+02
 Symmetry B1G  KE= 4.905772758259D-35
 Symmetry B2G  KE= 3.367112160454D-35
 Symmetry B3G  KE= 2.874458424362D-35
 Symmetry AU   KE= 0.000000000000D+00
 Symmetry B1U  KE= 4.522735424323D+01
 Symmetry B2U  KE= 4.522735424323D+01
 Symmetry B3U  KE= 4.522735424323D+01
 No NMR shielding tensors so no spin-rotation constants.
 Leave Link  601 at Fri Dec 14 16:20:42 2012, MaxMem=  346030080 cpu:       0.6
 (Enter /afs/physto.se/common/scratch/odelius/x86_64//g03root/g03/l701.exe)
 Compute integral first derivatives.
 ... and contract with generalized density number  0.
 Leave Link  701 at Fri Dec 14 16:20:44 2012, MaxMem=  346030080 cpu:       0.4
 (Enter /afs/physto.se/common/scratch/odelius/x86_64//g03root/g03/l702.exe)
 L702 exits ... SP integral derivatives will be done elsewhere.
 Leave Link  702 at Fri Dec 14 16:20:45 2012, MaxMem=  346030080 cpu:       0.0
 (Enter /afs/physto.se/common/scratch/odelius/x86_64//g03root/g03/l703.exe)
 Compute integral first derivatives, UseDBF=F.
 Integral derivatives from FoFDir, PRISM(SPDF).
 Petite list used in FoFDir.
 MinBra= 0 MaxBra= 2 Meth= 1.
 IRaf=       0 NMat=   1 IRICut=       1 DoRegI=T DoRafI=F ISym2E= 1 JSym2E=1.
 Leave Link  703 at Fri Dec 14 16:20:47 2012, MaxMem=  346030080 cpu:       0.9
 (Enter /afs/physto.se/common/scratch/odelius/x86_64//g03root/g03/l716.exe)
 Dipole        = 0.00000000D+00 0.00000000D+00 0.00000000D+00
 ***** Axes restored to original set *****
 -------------------------------------------------------------------
 Center     Atomic                   Forces (Hartrees/Bohr)
 Number     Number              X              Y              Z
 -------------------------------------------------------------------
    1         17           0.000000000    0.000000000    0.000000000
 -------------------------------------------------------------------
 Cartesian Forces:  Max     0.000000000 RMS     0.000000000
 ------------------------------------------------------------------------
           Internal Coordinate Forces (Hartree/Bohr or radian)
 Cent Atom N1     Length/X     N2     Alpha/Y      N3      Beta/Z       J
 ------------------------------------------------------------------------
   1  Cl        0.000000(   1)      0.000000(   2)      0.000000(   3)
 ------------------------------------------------------------------------
 Internal  Forces:  Max     0.000000000 RMS     0.000000000
 Leave Link  716 at Fri Dec 14 16:20:49 2012, MaxMem=  346030080 cpu:       0.0
 (Enter /afs/physto.se/common/scratch/odelius/x86_64//g03root/g03/l103.exe)

 GradGradGradGradGradGradGradGradGradGradGradGradGradGradGradGradGradGrad
 Berny optimization.
 Search for a local minimum.
 Step number   1 out of a maximum of  20
 All quantities printed in internal units (Hartrees-Bohrs-Radians)
 Second derivative matrix not updated -- first step.
 The second derivative matrix:
                          X1        Y1        Z1
           X1           0.00000
           Y1           0.00000   0.00000
           Z1           0.00000   0.00000   0.00000
     Eigenvalues --- 
 RFO step:  Lambda=-5.96046448D-09.
 Linear search not attempted -- first point.
 TrRot=  0.000000  0.000000  0.000000  0.000000  0.000000  0.000000
 Variable       Old X    -DE/DX   Delta X   Delta X   Delta X     New X
                                 (Linear)    (Quad)   (Total)
    X1        0.00000   0.00000   0.00000   0.00000   0.00000   0.00000
    Y1        0.00000   0.00000   0.00000   0.00000   0.00000   0.00000
    Z1        0.00000   0.00000   0.00000   0.00000   0.00000   0.00000
         Item               Value     Threshold  Converged?
 Maximum Force            0.000000     0.000450     YES
 RMS     Force            0.000000     0.000300     YES
 Maximum Displacement     0.000000     0.001800     YES
 RMS     Displacement     0.000000     0.001200     YES
 Predicted change in Energy= 0.000000D+00
 Optimization completed.
    -- Stationary point found.
 GradGradGradGradGradGradGradGradGradGradGradGradGradGradGradGradGradGrad

 Largest change from initial coordinates is atom    0       0.000 Angstoms.
 Leave Link  103 at Fri Dec 14 16:20:50 2012, MaxMem=  346030080 cpu:       0.0
 (Enter /afs/physto.se/common/scratch/odelius/x86_64//g03root/g03/l9999.exe)
 1\1\GINC-QCMDLX10\FOpt\RB3LYP\6-31G(d,p)\Cl1(1-)\TK\14-Dec-2012\0\\#P 
 OPT FREQ B3LYP 6-31G(D,P)\\Reactant. CONTINUING FROM: reac.log\\-1,1\C
 l,0.,0.,0.\\Version=x86-Linux-G03RevB.04\State=1-A1G\HF=-460.2522333\R
 MSD=6.493e-09\RMSF=0.000e+00\Dipole=0.,0.,0.\PG=OH [O(Cl1)]\\@


 PATIENCE IS THE ABILITY TO IDLE YOUR MOTOR WHEN
 YOU FEEL LIKE STRIPPING YOUR GEARS.
 Leave Link 9999 at Fri Dec 14 16:20:52 2012, MaxMem=  346030080 cpu:       0.0
 Job cpu time:  0 days  0 hours  0 minutes 60.0 seconds.
 File lengths (MBytes):  RWF=     11 Int=      0 D2E=      0 Chk=      4 Scr=      1
 Normal termination of Gaussian 03 at Fri Dec 14 16:20:52 2012.
 (Enter /afs/physto.se/common/scratch/odelius/x86_64//g03root/g03/l1.exe)
 Link1:  Proceeding to internal job step number  2.
 --------------------------------------------------------------------
 #P Geom=AllCheck Guess=Read SCRF=Check GenChk RB3LYP/6-31G(d,p) Freq
 --------------------------------------------------------------------
 1/10=4,29=7,30=1,38=1,40=1,46=1/1,3;
 2/40=1/2;
 3/5=1,6=6,7=101,11=2,16=1,25=1,30=1,70=2,71=2,74=-5/1,2,3;
 4/5=1,7=1/1;
 5/5=2,38=6/2;
 8/6=4,10=90,11=11/1;
 11/6=1,8=1,9=11,15=111,16=1/1,2,10;
 10/6=1/2;
 6/7=2,8=2,9=2,10=2,18=1,28=1/1;
 7/8=1,10=1,25=1/1,2,3,16;
 1/10=4,30=1,46=1/3;
 99//99;
 Leave Link    1 at Fri Dec 14 16:20:52 2012, MaxMem=  346030080 cpu:       0.2
 (Enter /afs/physto.se/common/scratch/odelius/x86_64//g03root/g03/l101.exe)
 -----------------------------------
 Reactant. CONTINUING FROM: reac.log
 -----------------------------------
 No Z-matrix found on checkpoint file.
 Cartesian coordinates read from the checkpoint file:
 /data3/tk/scrg03/Gau-18744.chk
 Charge = -1 Multiplicity = 1
  Cl                                                0.000000000000      0.000000000000      0.000000000000
 Recover connectivity data from disk.
                    Isotopes and Nuclear Properties:

  Atom         1
 IAtWgt=          35
 AtmWgt=  34.9688527
 IAtSpn=           3
 AtZEff= -14.2400000
 AtQMom=  -8.2490000
 AtGFac=   0.8218740
 Leave Link  101 at Fri Dec 14 16:20:54 2012, MaxMem=  346030080 cpu:       0.1
 (Enter /afs/physto.se/common/scratch/odelius/x86_64//g03root/g03/l103.exe)

 GradGradGradGradGradGradGradGradGradGradGradGradGradGradGradGradGradGrad
 Berny optimization.
 Initialization pass.
 Trust Radius=3.00D-01 FncErr=1.00D-07 GrdErr=1.00D-07
 Number of steps in this run=   2 maximum allowed number of steps=   2.
 GradGradGradGradGradGradGradGradGradGradGradGradGradGradGradGradGradGrad

 Leave Link  103 at Fri Dec 14 16:20:55 2012, MaxMem=  346030080 cpu:       0.1
 (Enter /afs/physto.se/common/scratch/odelius/x86_64//g03root/g03/l202.exe)
                          Input orientation:                          
 ---------------------------------------------------------------------
 Center     Atomic     Atomic              Coordinates (Angstroms)
 Number     Number      Type              X           Y           Z
 ---------------------------------------------------------------------
    1         17             0        0.000000    0.000000    0.000000
 ---------------------------------------------------------------------
 Stoichiometry    Cl(1-)
 Framework group  OH[O(Cl)]
 Deg. of freedom     0
 Full point group                 OH      NOp  48
 Largest Abelian subgroup         D2H     NOp   8
 Largest concise Abelian subgroup C1      NOp   1
                         Standard orientation:                         
 ---------------------------------------------------------------------
 Center     Atomic     Atomic              Coordinates (Angstroms)
 Number     Number      Type              X           Y           Z
 ---------------------------------------------------------------------
    1         17             0        0.000000    0.000000    0.000000
 ---------------------------------------------------------------------
 Leave Link  202 at Fri Dec 14 16:20:57 2012, MaxMem=  346030080 cpu:       0.1
 (Enter /afs/physto.se/common/scratch/odelius/x86_64//g03root/g03/l301.exe)
 Standard basis: 6-31G(d,p) (6D, 7F)
 There are     7 symmetry adapted basis functions of AG  symmetry.
 There are     1 symmetry adapted basis functions of B1G symmetry.
 There are     1 symmetry adapted basis functions of B2G symmetry.
 There are     1 symmetry adapted basis functions of B3G symmetry.
 There are     0 symmetry adapted basis functions of AU  symmetry.
 There are     3 symmetry adapted basis functions of B1U symmetry.
 There are     3 symmetry adapted basis functions of B2U symmetry.
 There are     3 symmetry adapted basis functions of B3U symmetry.
 Integral buffers will be    262144 words long.
 Raffenetti 2 integral format.
 Two-electron integral symmetry is turned on.
    19 basis functions,    52 primitive gaussians,    19 cartesian basis functions
     9 alpha electrons        9 beta electrons
       nuclear repulsion energy         0.0000000000 Hartrees.
 IExCor= 402 DFT=T Ex=B+HF Corr=LYP ExCW=0 ScaHFX=  0.200000
 ScaDFX=  0.800000  0.720000  1.000000  0.810000
 IRadAn=      0 IRanWt=     -1 IRanGd=            0 ICorTp=0
 NAtoms=    1 NActive=    1 NUniq=    1 SFac= 1.00D+00 NAtFMM=   60 Big=F
 Leave Link  301 at Fri Dec 14 16:20:58 2012, MaxMem=  346030080 cpu:       0.0
 (Enter /afs/physto.se/common/scratch/odelius/x86_64//g03root/g03/l302.exe)
 NPDir=0 NMtPBC=     1 NCelOv=     1 NCel=       1 NClECP=     1 NCelD=      1
         NCelK=      1 NCelE2=     1 NClLst=     1 CellRange=     0.0.
 One-electron integrals computed using PRISM.
 NBasis=    19 RedAO= T  NBF=     7     1     1     1     0     3     3     3
 NBsUse=    19 1.00D-06 NBFU=     7     1     1     1     0     3     3     3
 Precomputing XC quadrature grid using
 IXCGrd= 2 IRadAn=           0 IRanWt=          -1 IRanGd=           0.
 NRdTot=      58 NPtTot=        7218 NUsed=        7482 NTot=        7498
 NSgBfM=    19    19    19    19.
 Leave Link  302 at Fri Dec 14 16:21:00 2012, MaxMem=  346030080 cpu:       0.4
 (Enter /afs/physto.se/common/scratch/odelius/x86_64//g03root/g03/l303.exe)
 DipDrv:  MaxL=1.
 Leave Link  303 at Fri Dec 14 16:21:03 2012, MaxMem=  346030080 cpu:       0.0
 (Enter /afs/physto.se/common/scratch/odelius/x86_64//g03root/g03/l401.exe)
 Initial guess read from the checkpoint file:
 /data3/tk/scrg03/Gau-18744.chk
 Guess basis will be translated and rotated to current coordinates.
 Initial guess orbital symmetries:
       Occupied  (A1G) (A1G) (T1U) (T1U) (T1U) (A1G) (T1U) (T1U)
                 (T1U)
       Virtual   (A1G) (T1U) (T1U) (T1U) (T2G) (T2G) (T2G) (EG)
                 (EG) (A1G)
 The electronic state of the initial guess is 1-A1G.
 Leave Link  401 at Fri Dec 14 16:21:04 2012, MaxMem=  346030080 cpu:       0.2
 (Enter /afs/physto.se/common/scratch/odelius/x86_64//g03root/g03/l502.exe)
 Closed shell SCF:
 Requested convergence on RMS density matrix=1.00D-08 within 128 cycles.
 Requested convergence on MAX density matrix=1.00D-06.
 Requested convergence on             energy=1.00D-06.
 No special actions if energy rises.
 Using DIIS extrapolation, IDIIS=  1040.
 Integral symmetry usage will be decided dynamically.
         7481 words used for storage of precomputed grid.
 Keep R1 integrals in memory in canonical form, NReq=      478318.
 IEnd=     26358 IEndB=     26358 NGot= 346030080 MDV= 346002666
 LenX= 346002666
 Symmetry not used in FoFDir.
 MinBra= 0 MaxBra= 2 Meth= 1.
 IRaf=       0 NMat=   1 IRICut=       1 DoRegI=T DoRafI=F ISym2E= 0 JSym2E=0.

 Cycle   1  Pass 1  IDiag  1:
 E= -460.252233330119    
 DIIS: error= 5.96D-10 at cycle   1 NSaved=   1.
 NSaved= 1 IEnMin= 1 EnMin= -460.252233330119     IErMin= 1 ErrMin= 5.96D-10
 ErrMax= 5.96D-10 EMaxC= 1.00D-01 BMatC= 4.35D-18 BMatP= 4.35D-18
 IDIUse=1 WtCom= 1.00D+00 WtEn= 0.00D+00
 Coeff-Com:  0.100D+01
 Coeff:      0.100D+01
 Gap=     0.629 Goal=   None    Shift=    0.000
 RMSDP=3.32D-10 MaxDP=3.77D-09              OVMax= 1.35D-09

 SCF Done:  E(RB+HF-LYP) =  -460.252233330     A.U. after    1 cycles
             Convg  =    0.3322D-09             -V/T =  2.0031
             S**2   =   0.0000
 KE= 4.588108180653D+02 PE=-1.100524390438D+03 EE= 1.814613390431D+02
 Leave Link  502 at Fri Dec 14 16:21:27 2012, MaxMem=  346030080 cpu:       0.4
 (Enter /afs/physto.se/common/scratch/odelius/x86_64//g03root/g03/l801.exe)
 Range of M.O.s used for correlation:     1    19
 NBasis=    19 NAE=     9 NBE=     9 NFC=     0 NFV=     0
 NROrb=     19 NOA=     9 NOB=     9 NVA=    10 NVB=    10
 Leave Link  801 at Fri Dec 14 16:21:29 2012, MaxMem=  346030080 cpu:       0.0
 (Enter /afs/physto.se/common/scratch/odelius/x86_64//g03root/g03/l1101.exe)
 Using compressed storage, NAtomX=     1.
 Will process   2 centers per pass.
 Leave Link 1101 at Fri Dec 14 16:21:31 2012, MaxMem=  346030080 cpu:       0.4
 (Enter /afs/physto.se/common/scratch/odelius/x86_64//g03root/g03/l1102.exe)
 Use density number 0.
 Symmetrizing basis deriv contribution to polar:
 IMax=3 JMax=2 DiffMx= 0.00D+00
 Leave Link 1102 at Fri Dec 14 16:21:45 2012, MaxMem=  346030080 cpu:       0.0
 (Enter /afs/physto.se/common/scratch/odelius/x86_64//g03root/g03/l1110.exe)
 Forming Gx(P) for the SCF density, NAtomX=     1.
 Integral derivatives from FoFDir, PRISM(SPDF).
 Do as many integral derivatives as possible in FoFDir.
 G2DrvN: MDV=     346030072.
 G2DrvN: will do    2 centers at a time, making    1 passes doing MaxLOS=2.
 Petite list used in FoFDir.
 MinBra= 0 MaxBra= 2 Meth= 1.
 IRaf=       0 NMat=   1 IRICut=       1 DoRegI=T DoRafI=F ISym2E= 1 JSym2E=1.
 FoFDir/FoFCou used for L=0 through L=2.
 Leave Link 1110 at Fri Dec 14 16:21:55 2012, MaxMem=  346030080 cpu:       1.0
 (Enter /afs/physto.se/common/scratch/odelius/x86_64//g03root/g03/l1002.exe)
 Minotr:  Closed-shell wavefunction.
          Direct CPHF calculation.
          Solving linear equations simultaneously.
          Differentiating once with respect to electric field.
                with respect to dipole field.
          Differentiating once with respect to nuclear coordinates.
          Using symmetry in CPHF.
          Requested convergence is 1.0D-08 RMS, and 1.0D-07 maximum.
          Secondary convergence is 1.0D-12 RMS, and 1.0D-12 maximum.
          NewPWx=T KeepS1=F KeepF1=F KeepIn=T MapXYZ=F.
          MDV=     346030080 using IRadAn=       2.
 Generate precomputed XC quadrature information.
          Store integrals in memory, NReq=      448638.
 Symmetry not used in FoFDir.
 MinBra= 0 MaxBra= 2 Meth= 1.
 IRaf=       0 NMat=   1 IRICut=       1 DoRegI=T DoRafI=F ISym2E= 0 JSym2E=0.
 CalDSu exits because no D1Ps are significant.
          There are   6 degrees of freedom in the 1st order CPHF.
     3 vectors were produced by pass  0.
 AX will form   3 AO Fock derivatives at one time.
     3 vectors were produced by pass  1.
     3 vectors were produced by pass  2.
     3 vectors were produced by pass  3.
     3 vectors were produced by pass  4.
 Inv2:  IOpt= 1 Iter= 1 AM= 1.69D-16 Conv= 1.00D-12.
 Inverted reduced A of dimension   15 with in-core refinement.
 Isotropic polarizability for W=    0.000000        6.49 Bohr**3.
 End of Minotr Frequency-dependent properties file   721 does not exist.
 Leave Link 1002 at Fri Dec 14 16:22:15 2012, MaxMem=  346030080 cpu:      35.4
 (Enter /afs/physto.se/common/scratch/odelius/x86_64//g03root/g03/l601.exe)
 Copying SCF densities to generalized density rwf, ISCF=0 IROHF=0.

 **********************************************************************

            Population analysis using the SCF density.

 **********************************************************************

 Orbital symmetries:
       Occupied  (A1G) (A1G) (T1U) (T1U) (T1U) (A1G) (T1U) (T1U)
                 (T1U)
       Virtual   (A1G) (T1U) (T1U) (T1U) (EG) (T2G) (T2G) (T2G)
                 (EG) (A1G)
 The electronic state is 1-A1G.
 Alpha  occ. eigenvalues -- -101.18571  -9.09721  -6.85522  -6.85522  -6.85522
 Alpha  occ. eigenvalues --   -0.43622   0.01479   0.01479   0.01479
 Alpha virt. eigenvalues --    0.64337   0.73712   0.73712   0.73712   1.22493
 Alpha virt. eigenvalues --    1.22493   1.22493   1.22493   1.22493   4.55944
          Condensed to atoms (all electrons):
              1
     1  Cl  18.000000
 Mulliken atomic charges:
              1
     1  Cl  -1.000000
 Sum of Mulliken charges=  -1.00000
 Atomic charges with hydrogens summed into heavy atoms:
              1
     1  Cl  -1.000000
 Sum of Mulliken charges=  -1.00000
 APT atomic charges:
              1
     1  Cl  -1.000000
 Sum of APT charges=  -1.00000
 APT Atomic charges with hydrogens summed into heavy atoms:
              1
     1  Cl  -1.000000
 Sum of APT charges=  -1.00000
 Electronic spatial extent (au):  <R**2>=    34.9233
 Charge=    -1.0000 electrons
 Dipole moment (field-independent basis, Debye):
    X=     0.0000    Y=     0.0000    Z=     0.0000  Tot=     0.0000
 Quadrupole moment (field-independent basis, Debye-Ang):
   XX=   -15.6577   YY=   -15.6577   ZZ=   -15.6577
   XY=     0.0000   XZ=     0.0000   YZ=     0.0000
 Traceless Quadrupole moment (field-independent basis, Debye-Ang):
   XX=     0.0000   YY=     0.0000   ZZ=     0.0000
   XY=     0.0000   XZ=     0.0000   YZ=     0.0000
 Octapole moment (field-independent basis, Debye-Ang**2):
  XXX=     0.0000  YYY=     0.0000  ZZZ=     0.0000  XYY=     0.0000
  XXY=     0.0000  XXZ=     0.0000  XZZ=     0.0000  YZZ=     0.0000
  YYZ=     0.0000  XYZ=     0.0000
 Hexadecapole moment (field-independent basis, Debye-Ang**3):
 XXXX=   -19.3641 YYYY=   -19.3641 ZZZZ=   -19.3641 XXXY=     0.0000
 XXXZ=     0.0000 YYYX=     0.0000 YYYZ=     0.0000 ZZZX=     0.0000
 ZZZY=     0.0000 XXYY=    -6.4547 XXZZ=    -6.4547 YYZZ=    -6.4547
 XXYZ=     0.0000 YYXZ=     0.0000 ZZXY=     0.0000
 N-N= 0.000000000000D+00 E-N=-1.100524390499D+03  KE= 4.588108180653D+02
 Symmetry AG   KE= 3.231287553074D+02
 Symmetry B1G  KE= 4.905772772848D-35
 Symmetry B2G  KE= 3.367112170468D-35
 Symmetry B3G  KE= 2.874458432911D-35
 Symmetry AU   KE= 0.000000000000D+00
 Symmetry B1U  KE= 4.522735425264D+01
 Symmetry B2U  KE= 4.522735425264D+01
 Symmetry B3U  KE= 4.522735425264D+01
  Exact polarizability:   6.488   0.000   6.488   0.000   0.000   6.488
 Approx polarizability:   7.554   0.000   7.554   0.000   0.000   7.554
 No NMR shielding tensors so no spin-rotation constants.
 Leave Link  601 at Fri Dec 14 16:22:25 2012, MaxMem=  346030080 cpu:       0.5
 (Enter /afs/physto.se/common/scratch/odelius/x86_64//g03root/g03/l701.exe)
 Compute integral second derivatives.
 ... and contract with generalized density number  0.
 Leave Link  701 at Fri Dec 14 16:22:27 2012, MaxMem=  346030080 cpu:       0.9
 (Enter /afs/physto.se/common/scratch/odelius/x86_64//g03root/g03/l702.exe)
 L702 exits ... SP integral derivatives will be done elsewhere.
 Leave Link  702 at Fri Dec 14 16:22:29 2012, MaxMem=  346030080 cpu:       0.0
 (Enter /afs/physto.se/common/scratch/odelius/x86_64//g03root/g03/l703.exe)
 Compute integral second derivatives, UseDBF=F.
 Integral derivatives from FoFDir, PRISM(SPDF).
 Petite list used in FoFDir.
 MinBra= 0 MaxBra= 2 Meth= 1.
 IRaf=       0 NMat=   1 IRICut=       1 DoRegI=T DoRafI=F ISym2E= 1 JSym2E=1.
 Leave Link  703 at Fri Dec 14 16:22:31 2012, MaxMem=  346030080 cpu:       2.3
 (Enter /afs/physto.se/common/scratch/odelius/x86_64//g03root/g03/l716.exe)
 Dipole        = 0.00000000D+00 0.00000000D+00 0.00000000D+00
 Polarizability= 6.48804592D+00-4.13380789D-12 6.48804592D+00
                -8.14511689D-12-8.76053849D-14 6.48804592D+00
 Full mass-weighted force constant matrix:
 Low frequencies ---   -0.0013    0.0007    0.0007
 Diagonal vibrational polarizability:
        0.0000000       0.0000000       0.0000000
 Harmonic frequencies (cm**-1), IR intensities (KM/Mole), Raman scattering
 activities (A**4/AMU), depolarization ratios for plane and unpolarized
 incident light, reduced masses (AMU), force constants (mDyne/A),
 and normal coordinates:

 -------------------
 - Thermochemistry -
 -------------------
 Temperature   298.150 Kelvin.  Pressure   1.00000 Atm.
 Atom  1 has atomic number 17 and mass  34.96885
 Molecular mass:    34.96885 amu.
 Zero-point vibrational energy          0.0 (Joules/Mol)
                                    0.00000 (Kcal/Mol)
 Vibrational temperatures: 
          (Kelvin)
 
 Zero-point correction=                           0.000000 (Hartree/Particle)
 Thermal correction to Energy=                    0.001416
 Thermal correction to Enthalpy=                  0.002360
 Thermal correction to Gibbs Free Energy=        -0.015023
 Sum of electronic and zero-point Energies=           -460.252233
 Sum of electronic and thermal Energies=              -460.250817
 Sum of electronic and thermal Enthalpies=            -460.249873
 Sum of electronic and thermal Free Energies=         -460.267256
 
                     E (Thermal)             CV                S
                      KCal/Mol        Cal/Mol-Kelvin    Cal/Mol-Kelvin
 Total                    0.889              2.981             36.586
 Electronic               0.000              0.000              0.000
 Translational            0.889              2.981             36.586
 Rotational               0.000              0.000              0.000
 Vibrational              0.000              0.000              0.000
                       Q            Log10(Q)             Ln(Q)
 Total Bot       0.812788D+07          6.909977         15.910811
 Total V=0       0.812788D+07          6.909977         15.910811
 Vib (Bot)       0.100000D+01          0.000000          0.000000
 Vib (V=0)       0.100000D+01          0.000000          0.000000
 Electronic      0.100000D+01          0.000000          0.000000
 Translational   0.812788D+07          6.909977         15.910811
 Rotational      0.100000D+01          0.000000          0.000000
 ***** Axes restored to original set *****
 -------------------------------------------------------------------
 Center     Atomic                   Forces (Hartrees/Bohr)
 Number     Number              X              Y              Z
 -------------------------------------------------------------------
    1         17           0.000000000    0.000000000    0.000000000
 -------------------------------------------------------------------
 Cartesian Forces:  Max     0.000000000 RMS     0.000000000
 Force constants in Cartesian coordinates: 
                1             2             3
      1  0.000000D+00
      2  0.000000D+00  0.000000D+00
      3  0.000000D+00  0.000000D+00  0.000000D+00
 Leave Link  716 at Fri Dec 14 16:22:54 2012, MaxMem=  346030080 cpu:       0.0
 (Enter /afs/physto.se/common/scratch/odelius/x86_64//g03root/g03/l103.exe)

 GradGradGradGradGradGradGradGradGradGradGradGradGradGradGradGradGradGrad
 Berny optimization.
 Search for a local minimum.
 Step number   1 out of a maximum of   2
 All quantities printed in internal units (Hartrees-Bohrs-Radians)
 Second derivative matrix not updated -- analytic derivatives used.
 The second derivative matrix:
                          X1        Y1        Z1
           X1           0.00000
           Y1           0.00000   0.00000
           Z1           0.00000   0.00000   0.00000
     Eigenvalues --- 
 Angle between quadratic step and forces=  90.00 degrees.
 Linear search not attempted -- first point.
 TrRot=  0.000000  0.000000  0.000000  0.000000  0.000000  0.000000
 Variable       Old X    -DE/DX   Delta X   Delta X   Delta X     New X
                                 (Linear)    (Quad)   (Total)
    X1        0.00000   0.00000   0.00000   0.00000   0.00000   0.00000
    Y1        0.00000   0.00000   0.00000   0.00000   0.00000   0.00000
    Z1        0.00000   0.00000   0.00000   0.00000   0.00000   0.00000
         Item               Value     Threshold  Converged?
 Maximum Force            0.000000     0.000450     YES
 RMS     Force            0.000000     0.000300     YES
 Maximum Displacement     0.000000     0.001800     YES
 RMS     Displacement     0.000000     0.001200     YES
 Predicted change in Energy= 0.000000D+00
 Optimization completed.
    -- Stationary point found.
 GradGradGradGradGradGradGradGradGradGradGradGradGradGradGradGradGradGrad

 Leave Link  103 at Fri Dec 14 16:22:55 2012, MaxMem=  346030080 cpu:       0.0
 (Enter /afs/physto.se/common/scratch/odelius/x86_64//g03root/g03/l9999.exe)
 1\1\GINC-QCMDLX10\Freq\RB3LYP\6-31G(d,p)\Cl1(1-)\TK\14-Dec-2012\0\\#P 
 GEOM=ALLCHECK GUESS=READ SCRF=CHECK GENCHK RB3LYP/6-31G(D,P) FREQ\\Rea
 ctant. CONTINUING FROM: reac.log\\-1,1\Cl,0.,0.,0.\\Version=x86-Linux-
 G03RevB.04\State=1-A1G\HF=-460.2522333\RMSD=3.322e-10\RMSF=0.000e+00\D
 ipole=0.,0.,0.\DipoleDeriv=-1.,0.,0.,0.,-1.,0.,0.,0.,-1.\Polar=6.48804
 59,0.,6.4880459,0.,0.,6.4880459\PG=OH [O(Cl1)]\NImag=0\\0.,0.,0.,0.,0.
 ,0.\\0.,0.,0.\\\@


 ... IT IS NO ONE DREAME THAT
     CAN PLEASE THESE ALL ...

                -- BEN JONSON
 Job cpu time:  0 days  0 hours  1 minutes 13.2 seconds.
 File lengths (MBytes):  RWF=     11 Int=      0 D2E=      0 Chk=      4 Scr=      1
 Normal termination of Gaussian 03 at Fri Dec 14 16:22:57 2012.
