 Entering Gaussian System, Link 0=g03
 Input=ch3cl.com
 Output=ch3cl.log
 Initial command:
 /afs/physto.se/common/scratch/odelius/x86_64//g03root/g03/l1.exe /data3/tk/scrg03/Gau-18824.inp -scrdir=/data3/tk/scrg03/
 Entering Link 1 = /afs/physto.se/common/scratch/odelius/x86_64//g03root/g03/l1.exe PID=     18826.
  
 Copyright (c) 1988,1990,1992,1993,1995,1998,2003, Gaussian, Inc.
                  All Rights Reserved.
  
 This is the Gaussian(R) 03 program.  It is based on the
 the Gaussian(R) 98 system (copyright 1998, Gaussian, Inc.),
 the Gaussian(R) 94 system (copyright 1995, Gaussian, Inc.),
 the Gaussian 92(TM) system (copyright 1992, Gaussian, Inc.),
 the Gaussian 90(TM) system (copyright 1990, Gaussian, Inc.),
 the Gaussian 88(TM) system (copyright 1988, Gaussian, Inc.),
 the Gaussian 86(TM) system (copyright 1986, Carnegie Mellon
 University), and the Gaussian 82(TM) system (copyright 1983,
 Carnegie Mellon University). Gaussian is a federally registered
 trademark of Gaussian, Inc.
  
 This software contains proprietary and confidential information,
 including trade secrets, belonging to Gaussian, Inc.
  
 This software is provided under written license and may be
 used, copied, transmitted, or stored only in accord with that
 written license.
  
 The following legend is applicable only to US Government
 contracts under DFARS:
  
                    RESTRICTED RIGHTS LEGEND
  
 Use, duplication or disclosure by the US Government is subject
 to restrictions as set forth in subparagraph (c)(1)(ii) of the
 Rights in Technical Data and Computer Software clause at DFARS
 252.227-7013.
  
 Gaussian, Inc.
 Carnegie Office Park, Building 6, Pittsburgh, PA 15106 USA
  
 The following legend is applicable only to US Government
 contracts under FAR:
  
                    RESTRICTED RIGHTS LEGEND
  
 Use, reproduction and disclosure by the US Government is subject
 to restrictions as set forth in subparagraph (c) of the
 Commercial Computer Software - Restricted Rights clause at FAR
 52.227-19.
  
 Gaussian, Inc.
 Carnegie Office Park, Building 6, Pittsburgh, PA 15106 USA
  
  
 ---------------------------------------------------------------
 Warning -- This program may not be used in any manner that
 competes with the business of Gaussian, Inc. or will provide
 assistance to any competitor of Gaussian, Inc.  The licensee
 of this program is prohibited from giving any competitor of
 Gaussian, Inc. access to this program.  By using this program,
 the user acknowledges that Gaussian, Inc. is engaged in the
 business of creating and licensing software in the field of
 computational chemistry and represents and warrants to the
 licensee that it is not a competitor of Gaussian, Inc. and that
 it will not use this program in any manner prohibited above.
 ---------------------------------------------------------------
  

 Cite this work as:
 Gaussian 03, Revision B.04,
 M. J. Frisch, G. W. Trucks, H. B. Schlegel, G. E. Scuseria, 
 M. A. Robb, J. R. Cheeseman, J. A. Montgomery, Jr., T. Vreven, 
 K. N. Kudin, J. C. Burant, J. M. Millam, S. S. Iyengar, J. Tomasi, 
 V. Barone, B. Mennucci, M. Cossi, G. Scalmani, N. Rega, 
 G. A. Petersson, H. Nakatsuji, M. Hada, M. Ehara, K. Toyota, 
 R. Fukuda, J. Hasegawa, M. Ishida, T. Nakajima, Y. Honda, O. Kitao, 
 H. Nakai, M. Klene, X. Li, J. E. Knox, H. P. Hratchian, J. B. Cross, 
 C. Adamo, J. Jaramillo, R. Gomperts, R. E. Stratmann, O. Yazyev, 
 A. J. Austin, R. Cammi, C. Pomelli, J. W. Ochterski, P. Y. Ayala, 
 K. Morokuma, G. A. Voth, P. Salvador, J. J. Dannenberg, 
 V. G. Zakrzewski, S. Dapprich, A. D. Daniels, M. C. Strain, 
 O. Farkas, D. K. Malick, A. D. Rabuck, K. Raghavachari, 
 J. B. Foresman, J. V. Ortiz, Q. Cui, A. G. Baboul, S. Clifford, 
 J. Cioslowski, B. B. Stefanov, G. Liu, A. Liashenko, P. Piskorz, 
 I. Komaromi, R. L. Martin, D. J. Fox, T. Keith, M. A. Al-Laham, 
 C. Y. Peng, A. Nanayakkara, M. Challacombe, P. M. W. Gill, 
 B. Johnson, W. Chen, M. W. Wong, C. Gonzalez, and J. A. Pople, 
 Gaussian, Inc., Pittsburgh PA, 2003.
 
 *********************************************
 Gaussian 03:  x86-Linux-G03RevB.04 2-Jun-2003
                  14-Dec-2012 
 *********************************************
 %mem=330MW
 %nprocshared=4
 Will use up to    4 processors via shared memory.
 ----------------------------
 #p opt freq b3lyp 6-31G(d,p)
 ----------------------------
 1/14=-1,18=20,26=3,38=1/1,3;
 2/9=110,17=6,18=5,40=1/2;
 3/5=1,6=6,7=101,11=2,16=1,25=1,30=1,74=-5/1,2,3;
 4//1;
 5/5=2,38=5/2;
 6/7=2,8=2,9=2,10=2,28=1/1;
 7//1,2,3,16;
 1/14=-1,18=20/3(1);
 99//99;
 2/9=110/2;
 3/5=1,6=6,7=101,11=2,16=1,25=1,30=1,74=-5/1,2,3;
 4/5=5,16=3/1;
 5/5=2,38=5/2;
 7//1,2,3,16;
 1/14=-1,18=20/3(-5);
 2/9=110/2;
 6/7=2,8=2,9=2,10=2,19=2,28=1/1;
 99/9=1/99;
 Leave Link    1 at Fri Dec 14 16:19:43 2012, MaxMem=  346030080 cpu:       0.4
 (Enter /afs/physto.se/common/scratch/odelius/x86_64//g03root/g03/l101.exe)
 -----------------------------------
 Reactant. CONTINUING FROM: reac.log
 -----------------------------------
 Symbolic Z-matrix:
 Charge =  0 Multiplicity = 1
 C                     0.        0.31923   0. 
 H                    -1.04255   0.60874   0. 
 H                     0.51254   0.63803   0.89812 
 H                     0.51254   0.63803  -0.89812 
 Cl                    0.03966  -1.72683   0. 
 
                    Isotopes and Nuclear Properties:

  Atom         1           2           3           4           5
 IAtWgt=          12           1           1           1          35
 AtmWgt=  12.0000000   1.0078250   1.0078250   1.0078250  34.9688527
 IAtSpn=           0           1           1           1           3
 AtZEff=   0.0000000   0.0000000   0.0000000   0.0000000   0.0000000
 AtQMom=   0.0000000   0.0000000   0.0000000   0.0000000  -8.2490000
 AtGFac=   0.0000000   2.7928460   2.7928460   2.7928460   0.8218740
 Leave Link  101 at Fri Dec 14 16:19:44 2012, MaxMem=  346030080 cpu:       0.1
 (Enter /afs/physto.se/common/scratch/odelius/x86_64//g03root/g03/l103.exe)

 GradGradGradGradGradGradGradGradGradGradGradGradGradGradGradGradGradGrad
 Berny optimization.
 Initialization pass.
                           ----------------------------
                           !    Initial Parameters    !
                           ! (Angstroms and Degrees)  !
 --------------------------                            --------------------------
 ! Name  Definition              Value          Derivative Info.                !
 --------------------------------------------------------------------------------
 ! R1    R(1,2)                  1.082          estimate D2E/DX2                !
 ! R2    R(1,3)                  1.0821         estimate D2E/DX2                !
 ! R3    R(1,4)                  1.0821         estimate D2E/DX2                !
 ! R4    R(1,5)                  2.0464         estimate D2E/DX2                !
 ! A1    A(2,1,3)              112.1822         estimate D2E/DX2                !
 ! A2    A(2,1,4)              112.1822         estimate D2E/DX2                !
 ! A3    A(2,1,5)              106.63           estimate D2E/DX2                !
 ! A4    A(3,1,4)              112.1921         estimate D2E/DX2                !
 ! A5    A(3,1,5)              106.5816         estimate D2E/DX2                !
 ! A6    A(4,1,5)              106.5816         estimate D2E/DX2                !
 --------------------------------------------------------------------------------
 Trust Radius=3.00D-01 FncErr=1.00D-07 GrdErr=1.00D-06
 Number of steps in this run=  20 maximum allowed number of steps= 100.
 GradGradGradGradGradGradGradGradGradGradGradGradGradGradGradGradGradGrad

 Leave Link  103 at Fri Dec 14 16:19:46 2012, MaxMem=  346030080 cpu:       0.1
 (Enter /afs/physto.se/common/scratch/odelius/x86_64//g03root/g03/l202.exe)
                          Input orientation:                          
 ---------------------------------------------------------------------
 Center     Atomic     Atomic              Coordinates (Angstroms)
 Number     Number      Type              X           Y           Z
 ---------------------------------------------------------------------
    1          6             0        0.000000    0.319226    0.000000
    2          1             0       -1.042552    0.608735    0.000000
    3          1             0        0.512541    0.638030    0.898119
    4          1             0        0.512541    0.638030   -0.898119
    5         17             0        0.039659   -1.726827    0.000000
 ---------------------------------------------------------------------
                    Distance matrix (angstroms):
                    1          2          3          4          5
     1  C    0.000000
     2  H    1.082003   0.000000
     3  H    1.082105   1.796048   0.000000
     4  H    1.082105   1.796048   1.796238   0.000000
     5  Cl   2.046437   2.574108   2.573477   2.573477   0.000000
 Stoichiometry    CH3Cl
 Framework group  CS[SG(CHCl),X(H2)]
 Deg. of freedom     6
 Full point group                 CS      NOp   2
 Largest Abelian subgroup         CS      NOp   2
 Largest concise Abelian subgroup CS      NOp   2
                         Standard orientation:                         
 ---------------------------------------------------------------------
 Center     Atomic     Atomic              Coordinates (Angstroms)
 Number     Number      Type              X           Y           Z
 ---------------------------------------------------------------------
    1          6             0        0.000019   -1.302391    0.000000
    2          1             0        1.036765   -1.612049    0.000000
    3          1             0       -0.518604   -1.611202    0.898119
    4          1             0       -0.518604   -1.611202   -0.898119
    5         17             0        0.000019    0.744047    0.000000
 ---------------------------------------------------------------------
 Rotational constants (GHZ):    155.4409501     10.4026689     10.4025709
 Leave Link  202 at Fri Dec 14 16:19:47 2012, MaxMem=  346030080 cpu:       0.1
 (Enter /afs/physto.se/common/scratch/odelius/x86_64//g03root/g03/l301.exe)
 Standard basis: 6-31G(d,p) (6D, 7F)
 There are    34 symmetry adapted basis functions of A'  symmetry.
 There are    15 symmetry adapted basis functions of A"  symmetry.
 Integral buffers will be    262144 words long.
 Raffenetti 2 integral format.
 Two-electron integral symmetry is turned on.
    49 basis functions,   101 primitive gaussians,    49 cartesian basis functions
    13 alpha electrons       13 beta electrons
       nuclear repulsion energy        46.5483781856 Hartrees.
 IExCor= 402 DFT=T Ex=B+HF Corr=LYP ExCW=0 ScaHFX=  0.200000
 ScaDFX=  0.800000  0.720000  1.000000  0.810000
 IRadAn=      0 IRanWt=     -1 IRanGd=            0 ICorTp=0
 NAtoms=    5 NActive=    5 NUniq=    4 SFac= 1.75D+00 NAtFMM=   60 Big=F
 Leave Link  301 at Fri Dec 14 16:19:49 2012, MaxMem=  346030080 cpu:       0.0
 (Enter /afs/physto.se/common/scratch/odelius/x86_64//g03root/g03/l302.exe)
 NPDir=0 NMtPBC=     1 NCelOv=     1 NCel=       1 NClECP=     1 NCelD=      1
         NCelK=      1 NCelE2=     1 NClLst=     1 CellRange=     0.0.
 One-electron integrals computed using PRISM.
 One-electron integral symmetry used in STVInt
 NBasis=    49 RedAO= T  NBF=    34    15
 NBsUse=    49 1.00D-06 NBFU=    34    15
 Precomputing XC quadrature grid using
 IXCGrd= 2 IRadAn=           0 IRanWt=          -1 IRanGd=           0.
 NRdTot=     306 NPtTot=       38746 NUsed=       40134 NTot=       40150
 NSgBfM=    49    49    49    49.
 Leave Link  302 at Fri Dec 14 16:19:50 2012, MaxMem=  346030080 cpu:       0.4
 (Enter /afs/physto.se/common/scratch/odelius/x86_64//g03root/g03/l303.exe)
 DipDrv:  MaxL=1.
 Leave Link  303 at Fri Dec 14 16:19:52 2012, MaxMem=  346030080 cpu:       0.0
 (Enter /afs/physto.se/common/scratch/odelius/x86_64//g03root/g03/l401.exe)
 Harris functional with IExCor=  402 diagonalized for initial guess.
 ExpMin= 1.43D-01 ExpMax= 2.52D+04 ExpMxC= 3.78D+03 IAcc=1 IRadAn=         1 AccDes= 1.00D-06
 HarFok:  IExCor= 402 AccDes= 1.00D-06 IRadAn=         1 IDoV=1
 ScaDFX=  1.000000  1.000000  1.000000  1.000000
 Harris En= -500.106817022052    
 Initial guess orbital symmetries:
       Occupied  (A') (A') (A') (A') (A') (A") (A') (A') (A') (A")
                 (A') (A') (A")
       Virtual   (A') (A') (A") (A') (A') (A") (A') (A') (A") (A')
                 (A') (A') (A') (A") (A') (A") (A") (A') (A') (A')
                 (A') (A") (A') (A") (A') (A") (A') (A") (A') (A')
                 (A") (A') (A") (A') (A') (A')
 The electronic state of the initial guess is 1-A'.
 Leave Link  401 at Fri Dec 14 16:19:53 2012, MaxMem=  346030080 cpu:       0.2
 (Enter /afs/physto.se/common/scratch/odelius/x86_64//g03root/g03/l502.exe)
 Closed shell SCF:
 Requested convergence on RMS density matrix=1.00D-08 within 128 cycles.
 Requested convergence on MAX density matrix=1.00D-06.
 Requested convergence on             energy=1.00D-06.
 No special actions if energy rises.
 Using DIIS extrapolation, IDIIS=  1040.
 Integral symmetry usage will be decided dynamically.
        40133 words used for storage of precomputed grid.
 Keep R1 integrals in memory in canonical form, NReq=     1307798.
 IEnd=     65608 IEndB=     65608 NGot= 346030080 MDV= 345232624
 LenX= 345232624
 Symmetry not used in FoFDir.
 MinBra= 0 MaxBra= 2 Meth= 1.
 IRaf=       0 NMat=   1 IRICut=       1 DoRegI=T DoRafI=F ISym2E= 0 JSym2E=0.
 Integral accuracy reduced to 1.0D-05 until final iterations.

 Cycle   1  Pass 0  IDiag  1:
 E= -500.053019468884    
 DIIS: error= 2.99D-02 at cycle   1 NSaved=   1.
 NSaved= 1 IEnMin= 1 EnMin= -500.053019468884     IErMin= 1 ErrMin= 2.99D-02
 ErrMax= 2.99D-02 EMaxC= 1.00D-01 BMatC= 4.14D-02 BMatP= 4.14D-02
 IDIUse=3 WtCom= 7.01D-01 WtEn= 2.99D-01
 Coeff-Com:  0.100D+01
 Coeff-En:   0.100D+01
 Coeff:      0.100D+01
 Gap=     0.307 Goal=   None    Shift=    0.000
 GapD=    0.307 DampG=1.000 DampE=0.500 DampFc=0.5000 IDamp=-1.
 Damping current iteration by 5.00D-01
 RMSDP=7.76D-03 MaxDP=1.06D-01              OVMax= 1.72D-01

 Cycle   2  Pass 0  IDiag  1:
 E= -500.072003958409     Delta-E=       -0.018984489525 Rises=F Damp=T
 DIIS: error= 6.28D-03 at cycle   2 NSaved=   2.
 NSaved= 2 IEnMin= 2 EnMin= -500.072003958409     IErMin= 2 ErrMin= 6.28D-03
 ErrMax= 6.28D-03 EMaxC= 1.00D-01 BMatC= 3.12D-03 BMatP= 4.14D-02
 IDIUse=3 WtCom= 9.37D-01 WtEn= 6.28D-02
 Coeff-Com:  0.103D+00 0.897D+00
 Coeff-En:   0.175D+00 0.825D+00
 Coeff:      0.108D+00 0.892D+00
 Gap=     0.241 Goal=   None    Shift=    0.000
 RMSDP=2.37D-03 MaxDP=3.75D-02 DE=-1.90D-02 OVMax= 1.27D-01

 Cycle   3  Pass 0  IDiag  1:
 E= -500.096520772176     Delta-E=       -0.024516813767 Rises=F Damp=F
 DIIS: error= 4.86D-03 at cycle   3 NSaved=   3.
 NSaved= 3 IEnMin= 3 EnMin= -500.096520772176     IErMin= 3 ErrMin= 4.86D-03
 ErrMax= 4.86D-03 EMaxC= 1.00D-01 BMatC= 1.55D-03 BMatP= 3.12D-03
 IDIUse=3 WtCom= 9.51D-01 WtEn= 4.86D-02
 Coeff-Com: -0.318D-02 0.399D+00 0.605D+00
 Coeff-En:   0.000D+00 0.000D+00 0.100D+01
 Coeff:     -0.302D-02 0.379D+00 0.624D+00
 Gap=     0.250 Goal=   None    Shift=    0.000
 RMSDP=1.40D-03 MaxDP=2.74D-02 DE=-2.45D-02 OVMax= 3.13D-02

 Cycle   4  Pass 0  IDiag  1:
 E= -500.098225724316     Delta-E=       -0.001704952139 Rises=F Damp=F
 DIIS: error= 1.63D-03 at cycle   4 NSaved=   4.
 NSaved= 4 IEnMin= 4 EnMin= -500.098225724316     IErMin= 4 ErrMin= 1.63D-03
 ErrMax= 1.63D-03 EMaxC= 1.00D-01 BMatC= 1.60D-04 BMatP= 1.55D-03
 IDIUse=3 WtCom= 9.84D-01 WtEn= 1.63D-02
 Coeff-Com:  0.241D-02 0.320D-01 0.251D+00 0.714D+00
 Coeff-En:   0.000D+00 0.000D+00 0.499D-01 0.950D+00
 Coeff:      0.237D-02 0.314D-01 0.248D+00 0.718D+00
 Gap=     0.247 Goal=   None    Shift=    0.000
 RMSDP=3.67D-04 MaxDP=7.35D-03 DE=-1.70D-03 OVMax= 8.17D-03

 Cycle   5  Pass 0  IDiag  1:
 E= -500.098419224073     Delta-E=       -0.000193499757 Rises=F Damp=F
 DIIS: error= 2.17D-04 at cycle   5 NSaved=   5.
 NSaved= 5 IEnMin= 5 EnMin= -500.098419224073     IErMin= 5 ErrMin= 2.17D-04
 ErrMax= 2.17D-04 EMaxC= 1.00D-01 BMatC= 2.84D-06 BMatP= 1.60D-04
 IDIUse=3 WtCom= 9.98D-01 WtEn= 2.17D-03
 Coeff-Com:  0.102D-02 0.136D-02 0.777D-01 0.274D+00 0.646D+00
 Coeff-En:   0.000D+00 0.000D+00 0.000D+00 0.000D+00 0.100D+01
 Coeff:      0.102D-02 0.136D-02 0.776D-01 0.273D+00 0.647D+00
 Gap=     0.248 Goal=   None    Shift=    0.000
 RMSDP=4.04D-05 MaxDP=7.00D-04 DE=-1.93D-04 OVMax= 6.21D-04

 Cycle   6  Pass 0  IDiag  1:
 E= -500.098422252228     Delta-E=       -0.000003028155 Rises=F Damp=F
 DIIS: error= 2.26D-05 at cycle   6 NSaved=   6.
 NSaved= 6 IEnMin= 6 EnMin= -500.098422252228     IErMin= 6 ErrMin= 2.26D-05
 ErrMax= 2.26D-05 EMaxC= 1.00D-01 BMatC= 2.59D-08 BMatP= 2.84D-06
 IDIUse=1 WtCom= 1.00D+00 WtEn= 0.00D+00
 Coeff-Com:  0.211D-03-0.697D-03 0.826D-02 0.311D-01 0.126D+00 0.835D+00
 Coeff:      0.211D-03-0.697D-03 0.826D-02 0.311D-01 0.126D+00 0.835D+00
 Gap=     0.248 Goal=   None    Shift=    0.000
 RMSDP=4.15D-06 MaxDP=7.39D-05 DE=-3.03D-06 OVMax= 6.17D-05

 Initial convergence to 1.0D-05 achieved.  Increase integral accuracy.
 Cycle   7  Pass 1  IDiag  1:
 E= -500.098486868371     Delta-E=       -0.000064616144 Rises=F Damp=F
 DIIS: error= 1.38D-05 at cycle   1 NSaved=   1.
 NSaved= 1 IEnMin= 1 EnMin= -500.098486868371     IErMin= 1 ErrMin= 1.38D-05
 ErrMax= 1.38D-05 EMaxC= 1.00D-01 BMatC= 1.14D-08 BMatP= 1.14D-08
 IDIUse=1 WtCom= 1.00D+00 WtEn= 0.00D+00
 Coeff-Com:  0.100D+01
 Coeff:      0.100D+01
 Gap=     0.248 Goal=   None    Shift=    0.000
 RMSDP=4.15D-06 MaxDP=7.39D-05 DE=-6.46D-05 OVMax= 5.19D-05

 Cycle   8  Pass 1  IDiag  1:
 E= -500.098486877841     Delta-E=       -0.000000009470 Rises=F Damp=F
 DIIS: error= 3.91D-06 at cycle   2 NSaved=   2.
 NSaved= 2 IEnMin= 2 EnMin= -500.098486877841     IErMin= 2 ErrMin= 3.91D-06
 ErrMax= 3.91D-06 EMaxC= 1.00D-01 BMatC= 7.40D-10 BMatP= 1.14D-08
 IDIUse=1 WtCom= 1.00D+00 WtEn= 0.00D+00
 Coeff-Com:  0.102D+00 0.898D+00
 Coeff:      0.102D+00 0.898D+00
 Gap=     0.248 Goal=   None    Shift=    0.000
 RMSDP=1.14D-06 MaxDP=1.85D-05 DE=-9.47D-09 OVMax= 3.11D-05

 Cycle   9  Pass 1  IDiag  1:
 E= -500.098486877647     Delta-E=        0.000000000194 Rises=F Damp=F
 DIIS: error= 4.47D-06 at cycle   3 NSaved=   3.
 NSaved= 3 IEnMin= 2 EnMin= -500.098486877841     IErMin= 2 ErrMin= 3.91D-06
 ErrMax= 4.47D-06 EMaxC= 1.00D-01 BMatC= 9.02D-10 BMatP= 7.40D-10
 IDIUse=1 WtCom= 1.00D+00 WtEn= 0.00D+00
 Coeff-Com:  0.910D-02 0.525D+00 0.465D+00
 Coeff:      0.910D-02 0.525D+00 0.465D+00
 Gap=     0.248 Goal=   None    Shift=    0.000
 RMSDP=6.91D-07 MaxDP=1.27D-05 DE= 1.94D-10 OVMax= 1.94D-05

 Cycle  10  Pass 1  IDiag  1:
 E= -500.098486878652     Delta-E=       -0.000000001005 Rises=F Damp=F
 DIIS: error= 6.20D-07 at cycle   4 NSaved=   4.
 NSaved= 4 IEnMin= 4 EnMin= -500.098486878652     IErMin= 4 ErrMin= 6.20D-07
 ErrMax= 6.20D-07 EMaxC= 1.00D-01 BMatC= 3.47D-11 BMatP= 7.40D-10
 IDIUse=1 WtCom= 1.00D+00 WtEn= 0.00D+00
 Coeff-Com: -0.595D-02 0.179D+00 0.224D+00 0.603D+00
 Coeff:     -0.595D-02 0.179D+00 0.224D+00 0.603D+00
 Gap=     0.248 Goal=   None    Shift=    0.000
 RMSDP=1.36D-07 MaxDP=2.83D-06 DE=-1.01D-09 OVMax= 3.04D-06

 Cycle  11  Pass 1  IDiag  1:
 E= -500.098486878690     Delta-E=       -0.000000000037 Rises=F Damp=F
 DIIS: error= 8.39D-08 at cycle   5 NSaved=   5.
 NSaved= 5 IEnMin= 5 EnMin= -500.098486878690     IErMin= 5 ErrMin= 8.39D-08
 ErrMax= 8.39D-08 EMaxC= 1.00D-01 BMatC= 5.70D-13 BMatP= 3.47D-11
 IDIUse=1 WtCom= 1.00D+00 WtEn= 0.00D+00
 Coeff-Com: -0.195D-02 0.402D-01 0.566D-01 0.207D+00 0.698D+00
 Coeff:     -0.195D-02 0.402D-01 0.566D-01 0.207D+00 0.698D+00
 Gap=     0.248 Goal=   None    Shift=    0.000
 RMSDP=2.10D-08 MaxDP=3.98D-07 DE=-3.73D-11 OVMax= 3.57D-07

 Cycle  12  Pass 1  IDiag  1:
 E= -500.098486878690     Delta-E=       -0.000000000001 Rises=F Damp=F
 DIIS: error= 1.67D-08 at cycle   6 NSaved=   6.
 NSaved= 6 IEnMin= 6 EnMin= -500.098486878690     IErMin= 6 ErrMin= 1.67D-08
 ErrMax= 1.67D-08 EMaxC= 1.00D-01 BMatC= 1.73D-14 BMatP= 5.70D-13
 IDIUse=1 WtCom= 1.00D+00 WtEn= 0.00D+00
 Coeff-Com: -0.280D-03 0.197D-02 0.479D-02 0.280D-01 0.188D+00 0.777D+00
 Coeff:     -0.280D-03 0.197D-02 0.479D-02 0.280D-01 0.188D+00 0.777D+00
 Gap=     0.248 Goal=   None    Shift=    0.000
 RMSDP=4.20D-09 MaxDP=7.44D-08 DE=-5.12D-13 OVMax= 6.64D-08

 SCF Done:  E(RB+HF-LYP) =  -500.098486879     A.U. after   12 cycles
             Convg  =    0.4203D-08             -V/T =  2.0040
             S**2   =   0.0000
 KE= 4.980856374995D+02 PE=-1.278960641852D+03 EE= 2.342281392886D+02
 Leave Link  502 at Fri Dec 14 16:19:55 2012, MaxMem=  346030080 cpu:       3.0
 (Enter /afs/physto.se/common/scratch/odelius/x86_64//g03root/g03/l601.exe)
 Copying SCF densities to generalized density rwf, ISCF=0 IROHF=0.

 **********************************************************************

            Population analysis using the SCF density.

 **********************************************************************

 Orbital symmetries:
       Occupied  (A') (A') (A') (A') (A') (A") (A') (A') (A") (A')
                 (A') (A') (A")
       Virtual   (A') (A') (A") (A') (A') (A') (A") (A') (A") (A')
                 (A') (A') (A") (A') (A') (A") (A") (A') (A') (A')
                 (A') (A") (A') (A") (A") (A') (A") (A') (A') (A')
                 (A") (A') (A") (A') (A') (A')
 The electronic state is 1-A'.
 Alpha  occ. eigenvalues -- -101.53266 -10.26502  -9.44623  -7.21081  -7.20036
 Alpha  occ. eigenvalues --   -7.20036  -0.80669  -0.70097  -0.45428  -0.45427
 Alpha  occ. eigenvalues --   -0.38048  -0.29542  -0.29541
 Alpha virt. eigenvalues --   -0.04766   0.09822   0.14414   0.14415   0.39980
 Alpha virt. eigenvalues --    0.45075   0.45078   0.48880   0.52460   0.52462
 Alpha virt. eigenvalues --    0.55253   0.80517   0.83368   0.83369   0.89789
 Alpha virt. eigenvalues --    0.89792   0.92251   0.92257   0.94276   1.25238
 Alpha virt. eigenvalues --    1.40290   1.40291   1.89849   1.99165   2.00249
 Alpha virt. eigenvalues --    2.00263   2.32710   2.32710   2.53763   2.79418
 Alpha virt. eigenvalues --    2.79430   3.15809   3.38577   3.38594   4.23624
 Alpha virt. eigenvalues --    4.33195
          Condensed to atoms (all electrons):
              1          2          3          4          5
     1  C    4.984714   0.380951   0.380959   0.380959   0.224091
     2  H    0.380951   0.528471  -0.028643  -0.028643  -0.027863
     3  H    0.380959  -0.028643   0.528472  -0.028618  -0.027918
     4  H    0.380959  -0.028643  -0.028618   0.528472  -0.027918
     5  Cl   0.224091  -0.027863  -0.027918  -0.027918  17.035157
 Mulliken atomic charges:
              1
     1  C   -0.351675
     2  H    0.175728
     3  H    0.175748
     4  H    0.175748
     5  Cl  -0.175549
 Sum of Mulliken charges=   0.00000
 Atomic charges with hydrogens summed into heavy atoms:
              1
     1  C    0.175549
     2  H    0.000000
     3  H    0.000000
     4  H    0.000000
     5  Cl  -0.175549
 Sum of Mulliken charges=   0.00000
 Electronic spatial extent (au):  <R**2>=   151.4059
 Charge=     0.0000 electrons
 Dipole moment (field-independent basis, Debye):
    X=    -0.0003    Y=    -2.7451    Z=     0.0000  Tot=     2.7451
 Quadrupole moment (field-independent basis, Debye-Ang):
   XX=   -19.8782   YY=   -16.8868   ZZ=   -19.8776
   XY=    -0.0008   XZ=     0.0000   YZ=     0.0000
 Traceless Quadrupole moment (field-independent basis, Debye-Ang):
   XX=    -0.9974   YY=     1.9941   ZZ=    -0.9967
   XY=    -0.0008   XZ=     0.0000   YZ=     0.0000
 Octapole moment (field-independent basis, Debye-Ang**2):
  XXX=     0.8272  YYY=    -0.6307  ZZZ=     0.0000  XYY=     0.0020
  XXY=    -1.3265  XXZ=     0.0000  XZZ=    -0.8286  YZZ=    -1.3264
  YYZ=     0.0000  XYZ=     0.0000
 Hexadecapole moment (field-independent basis, Debye-Ang**3):
 XXXX=   -27.6519 YYYY=  -136.6111 ZZZZ=   -27.6517 XXXY=    -1.3718
 XXXZ=     0.0000 YYYX=    -0.0072 YYYZ=     0.0000 ZZZX=     0.0000
 ZZZY=     0.0000 XXYY=   -27.4231 XXZZ=    -9.2168 YYZZ=   -27.4255
 XXYZ=     0.0000 YYXZ=     0.0000 ZZXY=     1.3716
 N-N= 4.654837818557D+01 E-N=-1.278960644184D+03  KE= 4.980856374995D+02
 Symmetry A'   KE= 4.503417326567D+02
 Symmetry A"   KE= 4.774390484275D+01
 No NMR shielding tensors so no spin-rotation constants.
 Leave Link  601 at Fri Dec 14 16:19:57 2012, MaxMem=  346030080 cpu:       0.6
 (Enter /afs/physto.se/common/scratch/odelius/x86_64//g03root/g03/l701.exe)
 Compute integral first derivatives.
 ... and contract with generalized density number  0.
 Leave Link  701 at Fri Dec 14 16:19:59 2012, MaxMem=  346030080 cpu:       0.5
 (Enter /afs/physto.se/common/scratch/odelius/x86_64//g03root/g03/l702.exe)
 L702 exits ... SP integral derivatives will be done elsewhere.
 Leave Link  702 at Fri Dec 14 16:20:00 2012, MaxMem=  346030080 cpu:       0.0
 (Enter /afs/physto.se/common/scratch/odelius/x86_64//g03root/g03/l703.exe)
 Compute integral first derivatives, UseDBF=F.
 Integral derivatives from FoFDir, PRISM(SPDF).
 Petite list used in FoFDir.
 MinBra= 0 MaxBra= 2 Meth= 1.
 IRaf=       0 NMat=   1 IRICut=       1 DoRegI=T DoRafI=F ISym2E= 1 JSym2E=1.
 Leave Link  703 at Fri Dec 14 16:20:02 2012, MaxMem=  346030080 cpu:       2.3
 (Enter /afs/physto.se/common/scratch/odelius/x86_64//g03root/g03/l716.exe)
 Dipole        =-1.00013692D-04-1.07998976D+00-3.67619778D-17
 ***** Axes restored to original set *****
 -------------------------------------------------------------------
 Center     Atomic                   Forces (Hartrees/Bohr)
 Number     Number              X              Y              Z
 -------------------------------------------------------------------
    1          6           0.000858621   -0.038888756    0.000000000
    2          1          -0.004198971   -0.004550324    0.000000000
    3          1           0.002201914   -0.004403121    0.003654387
    4          1           0.002201914   -0.004403121   -0.003654387
    5         17          -0.001063477    0.052245321    0.000000000
 -------------------------------------------------------------------
 Cartesian Forces:  Max     0.052245321 RMS     0.017043659
 Leave Link  716 at Fri Dec 14 16:20:04 2012, MaxMem=  346030080 cpu:       0.0
 (Enter /afs/physto.se/common/scratch/odelius/x86_64//g03root/g03/l103.exe)

 GradGradGradGradGradGradGradGradGradGradGradGradGradGradGradGradGradGrad
 Berny optimization.
 Internal  Forces:  Max     0.052256118 RMS     0.017219057
 Search for a local minimum.
 Step number   1 out of a maximum of  20
 All quantities printed in internal units (Hartrees-Bohrs-Radians)
 Second derivative matrix not updated -- first step.
 The second derivative matrix:
                          R1        R2        R3        R4        A1
           R1           0.35753
           R2           0.00000   0.35741
           R3           0.00000   0.00000   0.35741
           R4           0.00000   0.00000   0.00000   0.13443
           A1           0.00000   0.00000   0.00000   0.00000   0.16000
           A2           0.00000   0.00000   0.00000   0.00000   0.00000
           A3           0.00000   0.00000   0.00000   0.00000   0.00000
           A4           0.00000   0.00000   0.00000   0.00000   0.00000
           A5           0.00000   0.00000   0.00000   0.00000   0.00000
           A6           0.00000   0.00000   0.00000   0.00000   0.00000
                          A2        A3        A4        A5        A6
           A2           0.16000
           A3           0.00000   0.16000
           A4           0.00000   0.00000   0.16000
           A5           0.00000   0.00000   0.00000   0.16000
           A6           0.00000   0.00000   0.00000   0.00000   0.16000
     Eigenvalues ---    0.13443   0.16000   0.16000   0.16000   0.16000
     Eigenvalues ---    0.16000   0.35741   0.35741   0.357531000.00000
 RFO step:  Lambda=-1.90332747D-02.
 Linear search not attempted -- first point.
 Maximum step size (   0.300) exceeded in Quadratic search.
    -- Step size scaled by   0.856
 Iteration  1 RMS(Cart)=  0.07158488 RMS(Int)=  0.02899077
 Iteration  2 RMS(Cart)=  0.02624413 RMS(Int)=  0.00046787
 Iteration  3 RMS(Cart)=  0.00000061 RMS(Int)=  0.00046787
 Variable       Old X    -DE/DX   Delta X   Delta X   Delta X     New X
                                 (Linear)    (Quad)   (Total)
    R1        2.04469   0.00283   0.00000   0.00644   0.00644   2.05113
    R2        2.04488   0.00278   0.00000   0.00632   0.00632   2.05120
    R3        2.04488   0.00278   0.00000   0.00632   0.00632   2.05120
    R4        3.86721  -0.05226   0.00000  -0.29164  -0.29164   3.57557
    A1        1.95795   0.00556   0.00000   0.02661   0.02595   1.98390
    A2        1.95795   0.00556   0.00000   0.02661   0.02595   1.98390
    A3        1.86104  -0.00635   0.00000  -0.03039  -0.03093   1.83011
    A4        1.95812   0.00556   0.00000   0.02660   0.02594   1.98406
    A5        1.86020  -0.00623   0.00000  -0.02981  -0.03035   1.82985
    A6        1.86020  -0.00623   0.00000  -0.02981  -0.03035   1.82985
         Item               Value     Threshold  Converged?
 Maximum Force            0.052256     0.000450     NO 
 RMS     Force            0.017219     0.000300     NO 
 Maximum Displacement     0.268344     0.001800     NO 
 RMS     Displacement     0.097062     0.001200     NO 
 Predicted change in Energy=-1.017675D-02
 GradGradGradGradGradGradGradGradGradGradGradGradGradGradGradGradGradGrad

 Leave Link  103 at Fri Dec 14 16:20:05 2012, MaxMem=  346030080 cpu:       0.0
 (Enter /afs/physto.se/common/scratch/odelius/x86_64//g03root/g03/l202.exe)
                          Input orientation:                          
 ---------------------------------------------------------------------
 Center     Atomic     Atomic              Coordinates (Angstroms)
 Number     Number      Type              X           Y           Z
 ---------------------------------------------------------------------
    1          6             0        0.000355    0.306933    0.000000
    2          1             0       -1.053923    0.565026    0.000000
    3          1             0        0.519507    0.595030    0.908670
    4          1             0        0.519507    0.595030   -0.908670
    5         17             0        0.036744   -1.584825    0.000000
 ---------------------------------------------------------------------
                    Distance matrix (angstroms):
                    1          2          3          4          5
     1  C    0.000000
     2  H    1.085410   0.000000
     3  H    1.085450   1.817213   0.000000
     4  H    1.085450   1.817213   1.817341   0.000000
     5  Cl   1.892108   2.410688   2.410500   2.410500   0.000000
 Stoichiometry    CH3Cl
 Framework group  CS[SG(CHCl),X(H2)]
 Deg. of freedom     6
 Full point group                 CS      NOp   2
 Largest Abelian subgroup         CS      NOp   2
 Largest concise Abelian subgroup CS      NOp   2
                         Standard orientation:                         
 ---------------------------------------------------------------------
 Center     Atomic     Atomic              Coordinates (Angstroms)
 Number     Number      Type              X           Y           Z
 ---------------------------------------------------------------------
    1          6             0       -0.000003    1.205054    0.000000
    2          1             0       -1.049122    1.483375    0.000000
    3          1             0        0.524594    1.483113    0.908670
    4          1             0        0.524594    1.483113   -0.908670
    5         17             0       -0.000003   -0.687054    0.000000
 ---------------------------------------------------------------------
 Rotational constants (GHZ):    151.8447913     12.1102079     12.1101177
 Leave Link  202 at Fri Dec 14 16:20:07 2012, MaxMem=  346030080 cpu:       0.1
 (Enter /afs/physto.se/common/scratch/odelius/x86_64//g03root/g03/l301.exe)
 Standard basis: 6-31G(d,p) (6D, 7F)
 There are    34 symmetry adapted basis functions of A'  symmetry.
 There are    15 symmetry adapted basis functions of A"  symmetry.
 Integral buffers will be    262144 words long.
 Raffenetti 2 integral format.
 Two-electron integral symmetry is turned on.
    49 basis functions,   101 primitive gaussians,    49 cartesian basis functions
    13 alpha electrons       13 beta electrons
       nuclear repulsion energy        49.3717276119 Hartrees.
 IExCor= 402 DFT=T Ex=B+HF Corr=LYP ExCW=0 ScaHFX=  0.200000
 ScaDFX=  0.800000  0.720000  1.000000  0.810000
 IRadAn=      0 IRanWt=     -1 IRanGd=            0 ICorTp=0
 NAtoms=    5 NActive=    5 NUniq=    4 SFac= 1.75D+00 NAtFMM=   60 Big=F
 Leave Link  301 at Fri Dec 14 16:20:08 2012, MaxMem=  346030080 cpu:       0.0
 (Enter /afs/physto.se/common/scratch/odelius/x86_64//g03root/g03/l302.exe)
 NPDir=0 NMtPBC=     1 NCelOv=     1 NCel=       1 NClECP=     1 NCelD=      1
         NCelK=      1 NCelE2=     1 NClLst=     1 CellRange=     0.0.
 One-electron integrals computed using PRISM.
 One-electron integral symmetry used in STVInt
 NBasis=    49 RedAO= T  NBF=    34    15
 NBsUse=    49 1.00D-06 NBFU=    34    15
 Precomputing XC quadrature grid using
 IXCGrd= 2 IRadAn=           0 IRanWt=          -1 IRanGd=           0.
 NRdTot=     305 NPtTot=       38746 NUsed=       40130 NTot=       40146
 NSgBfM=    49    49    49    49.
 Leave Link  302 at Fri Dec 14 16:20:10 2012, MaxMem=  346030080 cpu:       0.4
 (Enter /afs/physto.se/common/scratch/odelius/x86_64//g03root/g03/l303.exe)
 DipDrv:  MaxL=1.
 Leave Link  303 at Fri Dec 14 16:20:11 2012, MaxMem=  346030080 cpu:       0.0
 (Enter /afs/physto.se/common/scratch/odelius/x86_64//g03root/g03/l401.exe)
 Initial guess read from the read-write file:
 Guess basis will be translated and rotated to current coordinates.
 Initial guess orbital symmetries:
       Occupied  (A') (A') (A') (A') (A') (A") (A') (A') (A") (A')
                 (A') (A') (A")
       Virtual   (A') (A') (A") (A') (A') (A') (A") (A') (A") (A')
                 (A') (A') (A") (A') (A') (A") (A") (A') (A') (A')
                 (A') (A") (A') (A") (A") (A') (A") (A') (A') (A')
                 (A") (A') (A") (A') (A') (A')
 The electronic state of the initial guess is 1-A'.
 Generating alternative initial guess.
 Harris functional with IExCor=  402 diagonalized for initial guess.
 ExpMin= 1.43D-01 ExpMax= 2.52D+04 ExpMxC= 3.78D+03 IAcc=1 IRadAn=         1 AccDes= 1.00D-06
 HarFok:  IExCor= 402 AccDes= 1.00D-06 IRadAn=         1 IDoV=1
 ScaDFX=  1.000000  1.000000  1.000000  1.000000
 Harris En= -500.118038887225    
 Leave Link  401 at Fri Dec 14 16:20:13 2012, MaxMem=  346030080 cpu:       0.3
 (Enter /afs/physto.se/common/scratch/odelius/x86_64//g03root/g03/l502.exe)
 Closed shell SCF:
 Requested convergence on RMS density matrix=1.00D-08 within 128 cycles.
 Requested convergence on MAX density matrix=1.00D-06.
 Requested convergence on             energy=1.00D-06.
 No special actions if energy rises.
 Using DIIS extrapolation, IDIIS=  1040.
 Integral symmetry usage will be decided dynamically.
        40129 words used for storage of precomputed grid.
 Keep R1 integrals in memory in canonical form, NReq=     1307794.
 IEnd=     65604 IEndB=     65604 NGot= 346030080 MDV= 345232628
 LenX= 345232628
 Symmetry not used in FoFDir.
 MinBra= 0 MaxBra= 2 Meth= 1.
 IRaf=       0 NMat=   1 IRICut=       1 DoRegI=T DoRafI=F ISym2E= 0 JSym2E=0.
 Integral accuracy reduced to 1.0D-05 until final iterations.

 Cycle   1  Pass 0  IDiag  1:
 E= -498.406533848817    
 DIIS: error= 5.65D-02 at cycle   1 NSaved=   1.
 NSaved= 1 IEnMin= 1 EnMin= -498.406533848817     IErMin= 1 ErrMin= 5.65D-02
 ErrMax= 5.65D-02 EMaxC= 1.00D-01 BMatC= 2.88D-01 BMatP= 2.88D-01
 IDIUse=3 WtCom= 4.35D-01 WtEn= 5.65D-01
 Coeff-Com:  0.100D+01
 Coeff-En:   0.100D+01
 Coeff:      0.100D+01
 Recover alternate guess density for next cycle.
 RMSDP=4.01D-02 MaxDP=6.78D-01              OVMax= 0.00D+00

 Cycle   2  Pass 0  IDiag  1:
 E= -500.060426985897     Delta-E=       -1.653893137080 Rises=F Damp=F
 DIIS: error= 3.14D-02 at cycle   2 NSaved=   2.
 NSaved= 2 IEnMin= 2 EnMin= -500.060426985897     IErMin= 2 ErrMin= 3.14D-02
 ErrMax= 3.14D-02 EMaxC= 1.00D-01 BMatC= 4.56D-02 BMatP= 2.88D-01
 IDIUse=3 WtCom= 6.86D-01 WtEn= 3.14D-01
 Coeff-Com:  0.855D-01 0.915D+00
 Coeff-En:   0.000D+00 0.100D+01
 Coeff:      0.587D-01 0.941D+00
 Gap=     1.076 Goal=   None    Shift=    0.000
 RMSDP=8.10D-03 MaxDP=1.13D-01 DE=-1.65D+00 OVMax= 7.25D-01

 Cycle   3  Pass 0  IDiag  1:
 E= -500.042505047113     Delta-E=        0.017921938784 Rises=F Damp=F
 DIIS: error= 3.73D-02 at cycle   3 NSaved=   3.
 NSaved= 3 IEnMin= 2 EnMin= -500.060426985897     IErMin= 2 ErrMin= 3.14D-02
 ErrMax= 3.73D-02 EMaxC= 1.00D-01 BMatC= 6.13D-02 BMatP= 4.56D-02
 IDIUse=2 WtCom= 0.00D+00 WtEn= 1.00D+00
 Coeff-En:   0.000D+00 0.574D+00 0.426D+00
 Coeff:      0.000D+00 0.574D+00 0.426D+00
 Gap=     0.296 Goal=   None    Shift=    0.000
 RMSDP=4.35D-03 MaxDP=5.47D-02 DE= 1.79D-02 OVMax= 9.64D-02

 Cycle   4  Pass 0  IDiag  1:
 E= -500.109154023725     Delta-E=       -0.066648976612 Rises=F Damp=F
 DIIS: error= 3.29D-03 at cycle   4 NSaved=   4.
 NSaved= 4 IEnMin= 4 EnMin= -500.109154023725     IErMin= 4 ErrMin= 3.29D-03
 ErrMax= 3.29D-03 EMaxC= 1.00D-01 BMatC= 6.02D-04 BMatP= 4.56D-02
 IDIUse=3 WtCom= 9.67D-01 WtEn= 3.29D-02
 Coeff-Com:  0.146D-02 0.156D+00 0.114D+00 0.729D+00
 Coeff-En:   0.000D+00 0.000D+00 0.000D+00 0.100D+01
 Coeff:      0.141D-02 0.150D+00 0.110D+00 0.738D+00
 Gap=     0.296 Goal=   None    Shift=    0.000
 RMSDP=9.93D-04 MaxDP=1.74D-02 DE=-6.66D-02 OVMax= 1.36D-02

 Cycle   5  Pass 0  IDiag  1:
 E= -500.109731586351     Delta-E=       -0.000577562626 Rises=F Damp=F
 DIIS: error= 1.20D-03 at cycle   5 NSaved=   5.
 NSaved= 5 IEnMin= 5 EnMin= -500.109731586351     IErMin= 5 ErrMin= 1.20D-03
 ErrMax= 1.20D-03 EMaxC= 1.00D-01 BMatC= 8.85D-05 BMatP= 6.02D-04
 IDIUse=3 WtCom= 9.88D-01 WtEn= 1.20D-02
 Coeff-Com: -0.576D-03 0.166D-01-0.763D-03 0.279D+00 0.706D+00
 Coeff-En:   0.000D+00 0.000D+00 0.000D+00 0.000D+00 0.100D+01
 Coeff:     -0.569D-03 0.164D-01-0.754D-03 0.276D+00 0.709D+00
 Gap=     0.294 Goal=   None    Shift=    0.000
 RMSDP=3.05D-04 MaxDP=5.50D-03 DE=-5.78D-04 OVMax= 5.30D-03

 Cycle   6  Pass 0  IDiag  1:
 E= -500.109831994946     Delta-E=       -0.000100408594 Rises=F Damp=F
 DIIS: error= 1.68D-04 at cycle   6 NSaved=   6.
 NSaved= 6 IEnMin= 6 EnMin= -500.109831994946     IErMin= 6 ErrMin= 1.68D-04
 ErrMax= 1.68D-04 EMaxC= 1.00D-01 BMatC= 2.33D-06 BMatP= 8.85D-05
 IDIUse=3 WtCom= 9.98D-01 WtEn= 1.68D-03
 Coeff-Com: -0.177D-03 0.274D-02-0.295D-02 0.940D-01 0.290D+00 0.616D+00
 Coeff-En:   0.000D+00 0.000D+00 0.000D+00 0.000D+00 0.000D+00 0.100D+01
 Coeff:     -0.177D-03 0.274D-02-0.295D-02 0.938D-01 0.289D+00 0.617D+00
 Gap=     0.294 Goal=   None    Shift=    0.000
 RMSDP=3.81D-05 MaxDP=7.26D-04 DE=-1.00D-04 OVMax= 5.67D-04

 Cycle   7  Pass 0  IDiag  1:
 E= -500.109834500790     Delta-E=       -0.000002505844 Rises=F Damp=F
 DIIS: error= 1.68D-05 at cycle   7 NSaved=   7.
 NSaved= 7 IEnMin= 7 EnMin= -500.109834500790     IErMin= 7 ErrMin= 1.68D-05
 ErrMax= 1.68D-05 EMaxC= 1.00D-01 BMatC= 1.34D-08 BMatP= 2.33D-06
 IDIUse=1 WtCom= 1.00D+00 WtEn= 0.00D+00
 Coeff-Com: -0.291D-05 0.216D-03-0.519D-03 0.109D-01 0.367D-01 0.121D+00
 Coeff-Com:  0.832D+00
 Coeff:     -0.291D-05 0.216D-03-0.519D-03 0.109D-01 0.367D-01 0.121D+00
 Coeff:      0.832D+00
 Gap=     0.294 Goal=   None    Shift=    0.000
 RMSDP=3.15D-06 MaxDP=5.53D-05 DE=-2.51D-06 OVMax= 3.69D-05

 Initial convergence to 1.0D-05 achieved.  Increase integral accuracy.
 Cycle   8  Pass 1  IDiag  1:
 E= -500.109859655267     Delta-E=       -0.000025154477 Rises=F Damp=F
 DIIS: error= 1.23D-05 at cycle   1 NSaved=   1.
 NSaved= 1 IEnMin= 1 EnMin= -500.109859655267     IErMin= 1 ErrMin= 1.23D-05
 ErrMax= 1.23D-05 EMaxC= 1.00D-01 BMatC= 6.98D-09 BMatP= 6.98D-09
 IDIUse=1 WtCom= 1.00D+00 WtEn= 0.00D+00
 Coeff-Com:  0.100D+01
 Coeff:      0.100D+01
 Gap=     0.294 Goal=   None    Shift=    0.000
 RMSDP=3.15D-06 MaxDP=5.53D-05 DE=-2.52D-05 OVMax= 3.75D-05

 Cycle   9  Pass 1  IDiag  1:
 E= -500.109859660623     Delta-E=       -0.000000005356 Rises=F Damp=F
 DIIS: error= 3.10D-06 at cycle   2 NSaved=   2.
 NSaved= 2 IEnMin= 2 EnMin= -500.109859660623     IErMin= 2 ErrMin= 3.10D-06
 ErrMax= 3.10D-06 EMaxC= 1.00D-01 BMatC= 4.73D-10 BMatP= 6.98D-09
 IDIUse=1 WtCom= 1.00D+00 WtEn= 0.00D+00
 Coeff-Com:  0.101D+00 0.899D+00
 Coeff:      0.101D+00 0.899D+00
 Gap=     0.294 Goal=   None    Shift=    0.000
 RMSDP=8.80D-07 MaxDP=1.22D-05 DE=-5.36D-09 OVMax= 2.16D-05

 Cycle  10  Pass 1  IDiag  1:
 E= -500.109859660507     Delta-E=        0.000000000116 Rises=F Damp=F
 DIIS: error= 3.25D-06 at cycle   3 NSaved=   3.
 NSaved= 3 IEnMin= 2 EnMin= -500.109859660623     IErMin= 2 ErrMin= 3.10D-06
 ErrMax= 3.25D-06 EMaxC= 1.00D-01 BMatC= 6.02D-10 BMatP= 4.73D-10
 IDIUse=1 WtCom= 1.00D+00 WtEn= 0.00D+00
 Coeff-Com: -0.638D-03 0.531D+00 0.469D+00
 Coeff:     -0.638D-03 0.531D+00 0.469D+00
 Gap=     0.294 Goal=   None    Shift=    0.000
 RMSDP=4.83D-07 MaxDP=7.72D-06 DE= 1.16D-10 OVMax= 1.18D-05

 Cycle  11  Pass 1  IDiag  1:
 E= -500.109859661147     Delta-E=       -0.000000000639 Rises=F Damp=F
 DIIS: error= 2.94D-07 at cycle   4 NSaved=   4.
 NSaved= 4 IEnMin= 4 EnMin= -500.109859661147     IErMin= 4 ErrMin= 2.94D-07
 ErrMax= 2.94D-07 EMaxC= 1.00D-01 BMatC= 6.12D-12 BMatP= 4.73D-10
 IDIUse=1 WtCom= 1.00D+00 WtEn= 0.00D+00
 Coeff-Com: -0.576D-02 0.162D+00 0.170D+00 0.673D+00
 Coeff:     -0.576D-02 0.162D+00 0.170D+00 0.673D+00
 Gap=     0.294 Goal=   None    Shift=    0.000
 RMSDP=7.90D-08 MaxDP=1.65D-06 DE=-6.39D-10 OVMax= 1.17D-06

 Cycle  12  Pass 1  IDiag  1:
 E= -500.109859661153     Delta-E=       -0.000000000006 Rises=F Damp=F
 DIIS: error= 7.17D-08 at cycle   5 NSaved=   5.
 NSaved= 5 IEnMin= 5 EnMin= -500.109859661153     IErMin= 5 ErrMin= 7.17D-08
 ErrMax= 7.17D-08 EMaxC= 1.00D-01 BMatC= 3.58D-13 BMatP= 6.12D-12
 IDIUse=1 WtCom= 1.00D+00 WtEn= 0.00D+00
 Coeff-Com: -0.170D-02 0.305D-01 0.347D-01 0.256D+00 0.680D+00
 Coeff:     -0.170D-02 0.305D-01 0.347D-01 0.256D+00 0.680D+00
 Gap=     0.294 Goal=   None    Shift=    0.000
 RMSDP=1.75D-08 MaxDP=3.40D-07 DE=-5.97D-12 OVMax= 2.65D-07

 Cycle  13  Pass 1  IDiag  1:
 E= -500.109859661153     Delta-E=       -0.000000000001 Rises=F Damp=F
 DIIS: error= 7.46D-09 at cycle   6 NSaved=   6.
 NSaved= 6 IEnMin= 6 EnMin= -500.109859661153     IErMin= 6 ErrMin= 7.46D-09
 ErrMax= 7.46D-09 EMaxC= 1.00D-01 BMatC= 4.73D-15 BMatP= 3.58D-13
 IDIUse=1 WtCom= 1.00D+00 WtEn= 0.00D+00
 Coeff-Com: -0.200D-04-0.344D-02-0.291D-02 0.146D-01 0.126D+00 0.865D+00
 Coeff:     -0.200D-04-0.344D-02-0.291D-02 0.146D-01 0.126D+00 0.865D+00
 Gap=     0.294 Goal=   None    Shift=    0.000
 RMSDP=1.88D-09 MaxDP=3.11D-08 DE=-5.12D-13 OVMax= 3.32D-08

 SCF Done:  E(RB+HF-LYP) =  -500.109859661     A.U. after   13 cycles
             Convg  =    0.1884D-08             -V/T =  2.0038
             S**2   =   0.0000
 KE= 4.982179346557D+02 PE=-1.284711083559D+03 EE= 2.370115616305D+02
 Leave Link  502 at Fri Dec 14 16:20:17 2012, MaxMem=  346030080 cpu:      10.4
 (Enter /afs/physto.se/common/scratch/odelius/x86_64//g03root/g03/l701.exe)
 Compute integral first derivatives.
 ... and contract with generalized density number  0.
 Leave Link  701 at Fri Dec 14 16:20:19 2012, MaxMem=  346030080 cpu:       0.5
 (Enter /afs/physto.se/common/scratch/odelius/x86_64//g03root/g03/l702.exe)
 L702 exits ... SP integral derivatives will be done elsewhere.
 Leave Link  702 at Fri Dec 14 16:20:21 2012, MaxMem=  346030080 cpu:       0.0
 (Enter /afs/physto.se/common/scratch/odelius/x86_64//g03root/g03/l703.exe)
 Compute integral first derivatives, UseDBF=F.
 Integral derivatives from FoFDir, PRISM(SPDF).
 Petite list used in FoFDir.
 MinBra= 0 MaxBra= 2 Meth= 1.
 IRaf=       0 NMat=   1 IRICut=       1 DoRegI=T DoRafI=F ISym2E= 1 JSym2E=1.
 Leave Link  703 at Fri Dec 14 16:20:59 2012, MaxMem=  346030080 cpu:       2.3
 (Enter /afs/physto.se/common/scratch/odelius/x86_64//g03root/g03/l716.exe)
 Dipole        = 1.03559538D-05 9.26370654D-01-8.46334491D-18
 ***** Axes restored to original set *****
 -------------------------------------------------------------------
 Center     Atomic                   Forces (Hartrees/Bohr)
 Number     Number              X              Y              Z
 -------------------------------------------------------------------
    1          6           0.000661866   -0.032788632    0.000000000
    2          1           0.000535391    0.004201315    0.000000000
    3          1          -0.000391979    0.004194329   -0.000549938
    4          1          -0.000391979    0.004194329    0.000549938
    5         17          -0.000413298    0.020198659    0.000000000
 -------------------------------------------------------------------
 Cartesian Forces:  Max     0.032788632 RMS     0.010124965
 Leave Link  716 at Fri Dec 14 16:21:01 2012, MaxMem=  346030080 cpu:       0.0
 (Enter /afs/physto.se/common/scratch/odelius/x86_64//g03root/g03/l103.exe)

 GradGradGradGradGradGradGradGradGradGradGradGradGradGradGradGradGradGrad
 Berny optimization.
 Internal  Forces:  Max     0.020202872 RMS     0.007377204
 Search for a local minimum.
 Step number   2 out of a maximum of  20
 All quantities printed in internal units (Hartrees-Bohrs-Radians)
 Update second derivatives using D2CorX and points  1  2
 Trust test= 1.12D+00 RLast= 3.00D-01 DXMaxT set to 4.24D-01
 The second derivative matrix:
                          R1        R2        R3        R4        A1
           R1           0.35759
           R2           0.00006   0.35747
           R3           0.00006   0.00006   0.35747
           R4           0.00065   0.00062   0.00062   0.10061
           A1           0.00127   0.00126   0.00126  -0.01472   0.16715
           A2           0.00127   0.00126   0.00126  -0.01472   0.00715
           A3          -0.00149  -0.00147  -0.00147   0.01715  -0.00840
           A4           0.00127   0.00126   0.00126  -0.01474   0.00715
           A5          -0.00149  -0.00147  -0.00147   0.01725  -0.00837
           A6          -0.00149  -0.00147  -0.00147   0.01725  -0.00837
                          A2        A3        A4        A5        A6
           A2           0.16715
           A3          -0.00840   0.16988
           A4           0.00715  -0.00841   0.16716
           A5          -0.00837   0.00984  -0.00838   0.16980
           A6          -0.00837   0.00984  -0.00838   0.00980   0.16980
     Eigenvalues ---    0.08805   0.16000   0.16000   0.16000   0.16000
     Eigenvalues ---    0.22324   0.35741   0.35748   0.357881000.00000
 RFO step:  Lambda=-2.82992013D-03.
 Quartic linear search produced a step of  0.29979.
 Iteration  1 RMS(Cart)=  0.04125408 RMS(Int)=  0.00155866
 Iteration  2 RMS(Cart)=  0.00113500 RMS(Int)=  0.00102747
 Iteration  3 RMS(Cart)=  0.00000141 RMS(Int)=  0.00102747
 Iteration  4 RMS(Cart)=  0.00000000 RMS(Int)=  0.00102747
 Variable       Old X    -DE/DX   Delta X   Delta X   Delta X     New X
                                 (Linear)    (Quad)   (Total)
    R1        2.05113   0.00048   0.00193   0.00027   0.00220   2.05333
    R2        2.05120   0.00046   0.00189   0.00024   0.00214   2.05334
    R3        2.05120   0.00046   0.00189   0.00024   0.00214   2.05334
    R4        3.57557  -0.02020  -0.08743  -0.09139  -0.17882   3.39674
    A1        1.98390  -0.00423   0.00778  -0.04151  -0.03512   1.94878
    A2        1.98390  -0.00423   0.00778  -0.04151  -0.03512   1.94878
    A3        1.83011   0.00518  -0.00927   0.05103   0.04050   1.87061
    A4        1.98406  -0.00424   0.00778  -0.04155  -0.03516   1.94890
    A5        1.82985   0.00523  -0.00910   0.05125   0.04089   1.87074
    A6        1.82985   0.00523  -0.00910   0.05125   0.04089   1.87074
         Item               Value     Threshold  Converged?
 Maximum Force            0.020203     0.000450     NO 
 RMS     Force            0.007377     0.000300     NO 
 Maximum Displacement     0.094445     0.001800     NO 
 RMS     Displacement     0.041710     0.001200     NO 
 Predicted change in Energy=-2.829314D-03
 GradGradGradGradGradGradGradGradGradGradGradGradGradGradGradGradGradGrad

 Leave Link  103 at Fri Dec 14 16:21:02 2012, MaxMem=  346030080 cpu:       0.0
 (Enter /afs/physto.se/common/scratch/odelius/x86_64//g03root/g03/l202.exe)
                          Input orientation:                          
 ---------------------------------------------------------------------
 Center     Atomic     Atomic              Coordinates (Angstroms)
 Number     Number      Type              X           Y           Z
 ---------------------------------------------------------------------
    1          6             0        0.001277    0.262302    0.000000
    2          1             0       -1.042776    0.563297    0.000000
    3          1             0        0.514014    0.593221    0.899029
    4          1             0        0.514014    0.593221   -0.899029
    5         17             0        0.035660   -1.534847    0.000000
 ---------------------------------------------------------------------
                    Distance matrix (angstroms):
                    1          2          3          4          5
     1  C    0.000000
     2  H    1.086575   0.000000
     3  H    1.086581   1.797983   0.000000
     4  H    1.086581   1.797983   1.798057   0.000000
     5  Cl   1.797478   2.359075   2.359184   2.359184   0.000000
 Stoichiometry    CH3Cl
 Framework group  CS[SG(CHCl),X(H2)]
 Deg. of freedom     6
 Full point group                 CS      NOp   2
 Largest Abelian subgroup         CS      NOp   2
 Largest concise Abelian subgroup CS      NOp   2
                         Standard orientation:                         
 ---------------------------------------------------------------------
 Center     Atomic     Atomic              Coordinates (Angstroms)
 Number     Number      Type              X           Y           Z
 ---------------------------------------------------------------------
    1          6             0        0.000006    1.138235    0.000000
    2          1             0       -1.038099    1.459146    0.000000
    3          1             0        0.518979    1.459286    0.899029
    4          1             0        0.518979    1.459286   -0.899029
    5         17             0        0.000006   -0.659243    0.000000
 ---------------------------------------------------------------------
 Rotational constants (GHZ):    155.1132084     13.1900930     13.1900313
 Leave Link  202 at Fri Dec 14 16:21:04 2012, MaxMem=  346030080 cpu:       0.2
 (Enter /afs/physto.se/common/scratch/odelius/x86_64//g03root/g03/l301.exe)
 Standard basis: 6-31G(d,p) (6D, 7F)
 There are    34 symmetry adapted basis functions of A'  symmetry.
 There are    15 symmetry adapted basis functions of A"  symmetry.
 Integral buffers will be    262144 words long.
 Raffenetti 2 integral format.
 Two-electron integral symmetry is turned on.
    49 basis functions,   101 primitive gaussians,    49 cartesian basis functions
    13 alpha electrons       13 beta electrons
       nuclear repulsion energy        51.1176750623 Hartrees.
 IExCor= 402 DFT=T Ex=B+HF Corr=LYP ExCW=0 ScaHFX=  0.200000
 ScaDFX=  0.800000  0.720000  1.000000  0.810000
 IRadAn=      0 IRanWt=     -1 IRanGd=            0 ICorTp=0
 NAtoms=    5 NActive=    5 NUniq=    4 SFac= 1.75D+00 NAtFMM=   60 Big=F
 Leave Link  301 at Fri Dec 14 16:21:30 2012, MaxMem=  346030080 cpu:       0.4
 (Enter /afs/physto.se/common/scratch/odelius/x86_64//g03root/g03/l302.exe)
 NPDir=0 NMtPBC=     1 NCelOv=     1 NCel=       1 NClECP=     1 NCelD=      1
         NCelK=      1 NCelE2=     1 NClLst=     1 CellRange=     0.0.
 One-electron integrals computed using PRISM.
 One-electron integral symmetry used in STVInt
 NBasis=    49 RedAO= T  NBF=    34    15
 NBsUse=    49 1.00D-06 NBFU=    34    15
 Precomputing XC quadrature grid using
 IXCGrd= 2 IRadAn=           0 IRanWt=          -1 IRanGd=           0.
 NRdTot=     305 NPtTot=       38308 NUsed=       39692 NTot=       39708
 NSgBfM=    49    49    49    49.
 Leave Link  302 at Fri Dec 14 16:21:43 2012, MaxMem=  346030080 cpu:      32.6
 (Enter /afs/physto.se/common/scratch/odelius/x86_64//g03root/g03/l303.exe)
 DipDrv:  MaxL=1.
 Leave Link  303 at Fri Dec 14 16:21:55 2012, MaxMem=  346030080 cpu:       0.0
 (Enter /afs/physto.se/common/scratch/odelius/x86_64//g03root/g03/l401.exe)
 Initial guess read from the read-write file:
 Guess basis will be translated and rotated to current coordinates.
 Initial guess orbital symmetries:
       Occupied  (A') (A') (A') (A') (A') (A") (A') (A') (A") (A')
                 (A') (A') (A")
       Virtual   (A') (A') (A") (A') (A') (A") (A') (A') (A') (A")
                 (A') (A") (A') (A') (A') (A") (A") (A') (A') (A')
                 (A") (A') (A") (A') (A") (A') (A') (A") (A') (A')
                 (A") (A') (A") (A') (A') (A')
 The electronic state of the initial guess is 1-A'.
 Generating alternative initial guess.
 Harris functional with IExCor=  402 diagonalized for initial guess.
 ExpMin= 1.43D-01 ExpMax= 2.52D+04 ExpMxC= 3.78D+03 IAcc=1 IRadAn=         1 AccDes= 1.00D-06
 HarFok:  IExCor= 402 AccDes= 1.00D-06 IRadAn=         1 IDoV=1
 ScaDFX=  1.000000  1.000000  1.000000  1.000000
 Harris En= -500.121477446442    
 Leave Link  401 at Fri Dec 14 16:21:59 2012, MaxMem=  346030080 cpu:       0.2
 (Enter /afs/physto.se/common/scratch/odelius/x86_64//g03root/g03/l502.exe)
 Closed shell SCF:
 Requested convergence on RMS density matrix=1.00D-08 within 128 cycles.
 Requested convergence on MAX density matrix=1.00D-06.
 Requested convergence on             energy=1.00D-06.
 No special actions if energy rises.
 Using DIIS extrapolation, IDIIS=  1040.
 Integral symmetry usage will be decided dynamically.
        39691 words used for storage of precomputed grid.
 Keep R1 integrals in memory in canonical form, NReq=     1307356.
 IEnd=     65166 IEndB=     65166 NGot= 346030080 MDV= 345233066
 LenX= 345233066
 Symmetry not used in FoFDir.
 MinBra= 0 MaxBra= 2 Meth= 1.
 IRaf=       0 NMat=   1 IRICut=       1 DoRegI=T DoRafI=F ISym2E= 0 JSym2E=0.
 Integral accuracy reduced to 1.0D-05 until final iterations.

 Cycle   1  Pass 0  IDiag  1:
 E= -500.110126301144    
 DIIS: error= 3.70D-03 at cycle   1 NSaved=   1.
 NSaved= 1 IEnMin= 1 EnMin= -500.110126301144     IErMin= 1 ErrMin= 3.70D-03
 ErrMax= 3.70D-03 EMaxC= 1.00D-01 BMatC= 1.09D-03 BMatP= 1.09D-03
 IDIUse=3 WtCom= 9.63D-01 WtEn= 3.70D-02
 Coeff-Com:  0.100D+01
 Coeff-En:   0.100D+01
 Coeff:      0.100D+01
 Gap=     0.332 Goal=   None    Shift=    0.000
 GapD=    0.332 DampG=1.000 DampE=1.000 DampFc=1.0000 IDamp=-1.
 RMSDP=1.37D-03 MaxDP=1.47D-02              OVMax= 2.46D-02

 Cycle   2  Pass 0  IDiag  1:
 E= -500.112073016262     Delta-E=       -0.001946715118 Rises=F Damp=F
 DIIS: error= 1.55D-03 at cycle   2 NSaved=   2.
 NSaved= 2 IEnMin= 2 EnMin= -500.112073016262     IErMin= 2 ErrMin= 1.55D-03
 ErrMax= 1.55D-03 EMaxC= 1.00D-01 BMatC= 1.48D-04 BMatP= 1.09D-03
 IDIUse=3 WtCom= 9.85D-01 WtEn= 1.55D-02
 Coeff-Com:  0.148D+00 0.852D+00
 Coeff-En:   0.000D+00 0.100D+01
 Coeff:      0.146D+00 0.854D+00
 Gap=     0.326 Goal=   None    Shift=    0.000
 RMSDP=4.62D-04 MaxDP=6.27D-03 DE=-1.95D-03 OVMax= 9.29D-03

 Cycle   3  Pass 0  IDiag  1:
 E= -500.112084813585     Delta-E=       -0.000011797323 Rises=F Damp=F
 DIIS: error= 1.59D-03 at cycle   3 NSaved=   3.
 NSaved= 3 IEnMin= 3 EnMin= -500.112084813585     IErMin= 2 ErrMin= 1.55D-03
 ErrMax= 1.59D-03 EMaxC= 1.00D-01 BMatC= 1.42D-04 BMatP= 1.48D-04
 IDIUse=3 WtCom= 9.84D-01 WtEn= 1.59D-02
 Coeff-Com: -0.284D-01 0.501D+00 0.528D+00
 Coeff-En:   0.000D+00 0.482D+00 0.518D+00
 Coeff:     -0.280D-01 0.500D+00 0.528D+00
 Gap=     0.324 Goal=   None    Shift=    0.000
 RMSDP=2.37D-04 MaxDP=3.39D-03 DE=-1.18D-05 OVMax= 5.22D-03

 Cycle   4  Pass 0  IDiag  1:
 E= -500.112232294698     Delta-E=       -0.000147481113 Rises=F Damp=F
 DIIS: error= 1.42D-04 at cycle   4 NSaved=   4.
 NSaved= 4 IEnMin= 4 EnMin= -500.112232294698     IErMin= 4 ErrMin= 1.42D-04
 ErrMax= 1.42D-04 EMaxC= 1.00D-01 BMatC= 1.23D-06 BMatP= 1.42D-04
 IDIUse=3 WtCom= 9.99D-01 WtEn= 1.42D-03
 Coeff-Com: -0.137D-01 0.167D+00 0.198D+00 0.648D+00
 Coeff-En:   0.000D+00 0.000D+00 0.000D+00 0.100D+01
 Coeff:     -0.137D-01 0.167D+00 0.198D+00 0.649D+00
 Gap=     0.324 Goal=   None    Shift=    0.000
 RMSDP=2.81D-05 MaxDP=5.19D-04 DE=-1.47D-04 OVMax= 3.70D-04

 Cycle   5  Pass 0  IDiag  1:
 E= -500.112233476621     Delta-E=       -0.000001181923 Rises=F Damp=F
 DIIS: error= 1.74D-05 at cycle   5 NSaved=   5.
 NSaved= 5 IEnMin= 5 EnMin= -500.112233476621     IErMin= 5 ErrMin= 1.74D-05
 ErrMax= 1.74D-05 EMaxC= 1.00D-01 BMatC= 3.33D-08 BMatP= 1.23D-06
 IDIUse=1 WtCom= 1.00D+00 WtEn= 0.00D+00
 Coeff-Com: -0.112D-02 0.842D-02 0.145D-01 0.159D+00 0.820D+00
 Coeff:     -0.112D-02 0.842D-02 0.145D-01 0.159D+00 0.820D+00
 Gap=     0.324 Goal=   None    Shift=    0.000
 RMSDP=6.01D-06 MaxDP=1.24D-04 DE=-1.18D-06 OVMax= 8.41D-05

 Initial convergence to 1.0D-05 achieved.  Increase integral accuracy.
 Cycle   6  Pass 1  IDiag  1:
 E= -500.112278654970     Delta-E=       -0.000045178349 Rises=F Damp=F
 DIIS: error= 1.67D-05 at cycle   1 NSaved=   1.
 NSaved= 1 IEnMin= 1 EnMin= -500.112278654970     IErMin= 1 ErrMin= 1.67D-05
 ErrMax= 1.67D-05 EMaxC= 1.00D-01 BMatC= 1.12D-08 BMatP= 1.12D-08
 IDIUse=1 WtCom= 1.00D+00 WtEn= 0.00D+00
 Coeff-Com:  0.100D+01
 Coeff:      0.100D+01
 Gap=     0.324 Goal=   None    Shift=    0.000
 RMSDP=6.01D-06 MaxDP=1.24D-04 DE=-4.52D-05 OVMax= 6.31D-05

 Cycle   7  Pass 1  IDiag  1:
 E= -500.112278659235     Delta-E=       -0.000000004265 Rises=F Damp=F
 DIIS: error= 8.51D-06 at cycle   2 NSaved=   2.
 NSaved= 2 IEnMin= 2 EnMin= -500.112278659235     IErMin= 2 ErrMin= 8.51D-06
 ErrMax= 8.51D-06 EMaxC= 1.00D-01 BMatC= 4.54D-09 BMatP= 1.12D-08
 IDIUse=1 WtCom= 1.00D+00 WtEn= 0.00D+00
 Coeff-Com:  0.368D+00 0.632D+00
 Coeff:      0.368D+00 0.632D+00
 Gap=     0.324 Goal=   None    Shift=    0.000
 RMSDP=2.62D-06 MaxDP=4.93D-05 DE=-4.26D-09 OVMax= 3.93D-05

 Cycle   8  Pass 1  IDiag  1:
 E= -500.112278663896     Delta-E=       -0.000000004662 Rises=F Damp=F
 DIIS: error= 2.06D-06 at cycle   3 NSaved=   3.
 NSaved= 3 IEnMin= 3 EnMin= -500.112278663896     IErMin= 3 ErrMin= 2.06D-06
 ErrMax= 2.06D-06 EMaxC= 1.00D-01 BMatC= 4.72D-10 BMatP= 4.54D-09
 IDIUse=1 WtCom= 1.00D+00 WtEn= 0.00D+00
 Coeff-Com:  0.394D-01 0.249D+00 0.711D+00
 Coeff:      0.394D-01 0.249D+00 0.711D+00
 Gap=     0.324 Goal=   None    Shift=    0.000
 RMSDP=5.99D-07 MaxDP=1.15D-05 DE=-4.66D-09 OVMax= 1.28D-05

 Cycle   9  Pass 1  IDiag  1:
 E= -500.112278664335     Delta-E=       -0.000000000439 Rises=F Damp=F
 DIIS: error= 1.38D-06 at cycle   4 NSaved=   4.
 NSaved= 4 IEnMin= 4 EnMin= -500.112278664335     IErMin= 4 ErrMin= 1.38D-06
 ErrMax= 1.38D-06 EMaxC= 1.00D-01 BMatC= 8.13D-11 BMatP= 4.72D-10
 IDIUse=1 WtCom= 1.00D+00 WtEn= 0.00D+00
 Coeff-Com: -0.571D-02 0.920D-01 0.389D+00 0.525D+00
 Coeff:     -0.571D-02 0.920D-01 0.389D+00 0.525D+00
 Gap=     0.324 Goal=   None    Shift=    0.000
 RMSDP=1.56D-07 MaxDP=2.31D-06 DE=-4.39D-10 OVMax= 2.83D-06

 Cycle  10  Pass 1  IDiag  1:
 E= -500.112278664417     Delta-E=       -0.000000000081 Rises=F Damp=F
 DIIS: error= 9.35D-08 at cycle   5 NSaved=   5.
 NSaved= 5 IEnMin= 5 EnMin= -500.112278664417     IErMin= 5 ErrMin= 9.35D-08
 ErrMax= 9.35D-08 EMaxC= 1.00D-01 BMatC= 4.98D-13 BMatP= 8.13D-11
 IDIUse=1 WtCom= 1.00D+00 WtEn= 0.00D+00
 Coeff-Com: -0.258D-02 0.299D-01 0.134D+00 0.195D+00 0.644D+00
 Coeff:     -0.258D-02 0.299D-01 0.134D+00 0.195D+00 0.644D+00
 Gap=     0.324 Goal=   None    Shift=    0.000
 RMSDP=1.76D-08 MaxDP=2.00D-07 DE=-8.12D-11 OVMax= 2.23D-07

 Cycle  11  Pass 1  IDiag  1:
 E= -500.112278664417     Delta-E=       -0.000000000001 Rises=F Damp=F
 DIIS: error= 1.20D-08 at cycle   6 NSaved=   6.
 NSaved= 6 IEnMin= 6 EnMin= -500.112278664417     IErMin= 6 ErrMin= 1.20D-08
 ErrMax= 1.20D-08 EMaxC= 1.00D-01 BMatC= 6.07D-15 BMatP= 4.98D-13
 IDIUse=1 WtCom= 1.00D+00 WtEn= 0.00D+00
 Coeff-Com:  0.911D-04-0.302D-02-0.104D-01-0.143D-01 0.568D-01 0.971D+00
 Coeff:      0.911D-04-0.302D-02-0.104D-01-0.143D-01 0.568D-01 0.971D+00
 Gap=     0.324 Goal=   None    Shift=    0.000
 RMSDP=3.15D-09 MaxDP=2.94D-08 DE=-6.82D-13 OVMax= 4.54D-08

 SCF Done:  E(RB+HF-LYP) =  -500.112278664     A.U. after   11 cycles
             Convg  =    0.3145D-08             -V/T =  2.0036
             S**2   =   0.0000
 KE= 4.983155729791D+02 PE=-1.288225725947D+03 EE= 2.386801992411D+02
 Leave Link  502 at Fri Dec 14 16:22:02 2012, MaxMem=  346030080 cpu:       3.2
 (Enter /afs/physto.se/common/scratch/odelius/x86_64//g03root/g03/l701.exe)
 Compute integral first derivatives.
 ... and contract with generalized density number  0.
 Leave Link  701 at Fri Dec 14 16:22:03 2012, MaxMem=  346030080 cpu:       0.5
 (Enter /afs/physto.se/common/scratch/odelius/x86_64//g03root/g03/l702.exe)
 L702 exits ... SP integral derivatives will be done elsewhere.
 Leave Link  702 at Fri Dec 14 16:22:25 2012, MaxMem=  346030080 cpu:       0.0
 (Enter /afs/physto.se/common/scratch/odelius/x86_64//g03root/g03/l703.exe)
 Compute integral first derivatives, UseDBF=F.
 Integral derivatives from FoFDir, PRISM(SPDF).
 Petite list used in FoFDir.
 MinBra= 0 MaxBra= 2 Meth= 1.
 IRaf=       0 NMat=   1 IRICut=       1 DoRegI=T DoRafI=F ISym2E= 1 JSym2E=1.
 Leave Link  703 at Fri Dec 14 16:22:28 2012, MaxMem=  346030080 cpu:       2.7
 (Enter /afs/physto.se/common/scratch/odelius/x86_64//g03root/g03/l716.exe)
 Dipole        =-3.25429357D-05 8.20286897D-01-1.10517513D-16
 ***** Axes restored to original set *****
 -------------------------------------------------------------------
 Center     Atomic                   Forces (Hartrees/Bohr)
 Number     Number              X              Y              Z
 -------------------------------------------------------------------
    1          6           0.000079943   -0.004589527    0.000000000
    2          1          -0.000338455    0.003543186    0.000000000
    3          1           0.000071893    0.003535616    0.000235991
    4          1           0.000071893    0.003535616   -0.000235991
    5         17           0.000114725   -0.006024892    0.000000000
 -------------------------------------------------------------------
 Cartesian Forces:  Max     0.006024892 RMS     0.002518918
 Leave Link  716 at Fri Dec 14 16:22:29 2012, MaxMem=  346030080 cpu:       0.2
 (Enter /afs/physto.se/common/scratch/odelius/x86_64//g03root/g03/l103.exe)

 GradGradGradGradGradGradGradGradGradGradGradGradGradGradGradGradGradGrad
 Berny optimization.
 Internal  Forces:  Max     0.006025984 RMS     0.003416245
 Search for a local minimum.
 Step number   3 out of a maximum of  20
 All quantities printed in internal units (Hartrees-Bohrs-Radians)
 Update second derivatives using D2CorX and points  1  2  3
 Trust test= 8.55D-01 RLast= 2.02D-01 DXMaxT set to 6.00D-01
 The second derivative matrix:
                          R1        R2        R3        R4        A1
           R1           0.35748
           R2          -0.00005   0.35737
           R3          -0.00005  -0.00004   0.35737
           R4           0.00728   0.00727   0.00727   0.19244
           A1           0.00123   0.00120   0.00120  -0.03441   0.16573
           A2           0.00123   0.00120   0.00120  -0.03441   0.00573
           A3          -0.00148  -0.00144  -0.00144   0.03699  -0.00657
           A4           0.00124   0.00120   0.00120  -0.03443   0.00573
           A5          -0.00150  -0.00146  -0.00146   0.03684  -0.00649
           A6          -0.00150  -0.00146  -0.00146   0.03684  -0.00649
                          A2        A3        A4        A5        A6
           A2           0.16573
           A3          -0.00657   0.16758
           A4           0.00573  -0.00657   0.16573
           A5          -0.00649   0.00749  -0.00649   0.16740
           A6          -0.00649   0.00749  -0.00649   0.00740   0.16740
     Eigenvalues ---    0.10784   0.16000   0.16000   0.16000   0.16000
     Eigenvalues ---    0.28312   0.35741   0.35749   0.358281000.00000
 RFO step:  Lambda=-4.17725705D-04.
 Quartic linear search produced a step of -0.04242.
 Iteration  1 RMS(Cart)=  0.01432966 RMS(Int)=  0.00016626
 Iteration  2 RMS(Cart)=  0.00013592 RMS(Int)=  0.00009175
 Iteration  3 RMS(Cart)=  0.00000000 RMS(Int)=  0.00009175
 Variable       Old X    -DE/DX   Delta X   Delta X   Delta X     New X
                                 (Linear)    (Quad)   (Total)
    R1        2.05333   0.00131  -0.00009   0.00387   0.00378   2.05711
    R2        2.05334   0.00131  -0.00009   0.00386   0.00377   2.05711
    R3        2.05334   0.00131  -0.00009   0.00386   0.00377   2.05711
    R4        3.39674   0.00603   0.00759   0.00449   0.01207   3.40881
    A1        1.94878  -0.00337   0.00149  -0.01665  -0.01528   1.93350
    A2        1.94878  -0.00337   0.00149  -0.01665  -0.01528   1.93350
    A3        1.87061   0.00372  -0.00172   0.01831   0.01648   1.88709
    A4        1.94890  -0.00338   0.00149  -0.01667  -0.01530   1.93360
    A5        1.87074   0.00370  -0.00173   0.01827   0.01642   1.88716
    A6        1.87074   0.00370  -0.00173   0.01827   0.01642   1.88716
         Item               Value     Threshold  Converged?
 Maximum Force            0.006026     0.000450     NO 
 RMS     Force            0.003416     0.000300     NO 
 Maximum Displacement     0.029651     0.001800     NO 
 RMS     Displacement     0.014372     0.001200     NO 
 Predicted change in Energy=-2.118722D-04
 GradGradGradGradGradGradGradGradGradGradGradGradGradGradGradGradGradGrad

 Leave Link  103 at Fri Dec 14 16:22:50 2012, MaxMem=  346030080 cpu:       0.0
 (Enter /afs/physto.se/common/scratch/odelius/x86_64//g03root/g03/l202.exe)
                          Input orientation:                          
 ---------------------------------------------------------------------
 Center     Atomic     Atomic              Coordinates (Angstroms)
 Number     Number      Type              X           Y           Z
 ---------------------------------------------------------------------
    1          6             0        0.001445    0.252997    0.000000
    2          1             0       -1.039426    0.571720    0.000000
    3          1             0        0.512095    0.601507    0.895976
    4          1             0        0.512095    0.601507   -0.895976
    5         17             0        0.035980   -1.550538    0.000000
 ---------------------------------------------------------------------
                    Distance matrix (angstroms):
                    1          2          3          4          5
     1  C    0.000000
     2  H    1.088576   0.000000
     3  H    1.088575   1.791892   0.000000
     4  H    1.088575   1.791892   1.791951   0.000000
     5  Cl   1.803866   2.379176   2.379234   2.379234   0.000000
 Stoichiometry    CH3Cl
 Framework group  CS[SG(CHCl),X(H2)]
 Deg. of freedom     6
 Full point group                 CS      NOp   2
 Largest Abelian subgroup         CS      NOp   2
 Largest concise Abelian subgroup CS      NOp   2
                         Standard orientation:                         
 ---------------------------------------------------------------------
 Center     Atomic     Atomic              Coordinates (Angstroms)
 Number     Number      Type              X           Y           Z
 ---------------------------------------------------------------------
    1          6             0        0.000005    1.140376    0.000000
    2          1             0       -1.034574    1.478969    0.000000
    3          1             0        0.517234    1.479046    0.895976
    4          1             0        0.517234    1.479046   -0.895976
    5         17             0        0.000005   -0.663489    0.000000
 ---------------------------------------------------------------------
 Rotational constants (GHZ):    156.1703738     13.0514392     13.0513915
 Leave Link  202 at Fri Dec 14 16:22:51 2012, MaxMem=  346030080 cpu:       0.1
 (Enter /afs/physto.se/common/scratch/odelius/x86_64//g03root/g03/l301.exe)
 Standard basis: 6-31G(d,p) (6D, 7F)
 There are    34 symmetry adapted basis functions of A'  symmetry.
 There are    15 symmetry adapted basis functions of A"  symmetry.
 Integral buffers will be    262144 words long.
 Raffenetti 2 integral format.
 Two-electron integral symmetry is turned on.
    49 basis functions,   101 primitive gaussians,    49 cartesian basis functions
    13 alpha electrons       13 beta electrons
       nuclear repulsion energy        50.9017870883 Hartrees.
 IExCor= 402 DFT=T Ex=B+HF Corr=LYP ExCW=0 ScaHFX=  0.200000
 ScaDFX=  0.800000  0.720000  1.000000  0.810000
 IRadAn=      0 IRanWt=     -1 IRanGd=            0 ICorTp=0
 NAtoms=    5 NActive=    5 NUniq=    4 SFac= 1.75D+00 NAtFMM=   60 Big=F
 Leave Link  301 at Fri Dec 14 16:22:53 2012, MaxMem=  346030080 cpu:       0.0
 (Enter /afs/physto.se/common/scratch/odelius/x86_64//g03root/g03/l302.exe)
 NPDir=0 NMtPBC=     1 NCelOv=     1 NCel=       1 NClECP=     1 NCelD=      1
         NCelK=      1 NCelE2=     1 NClLst=     1 CellRange=     0.0.
 One-electron integrals computed using PRISM.
 One-electron integral symmetry used in STVInt
 NBasis=    49 RedAO= T  NBF=    34    15
 NBsUse=    49 1.00D-06 NBFU=    34    15
 Precomputing XC quadrature grid using
 IXCGrd= 2 IRadAn=           0 IRanWt=          -1 IRanGd=           0.
 NRdTot=     305 NPtTot=       38308 NUsed=       39692 NTot=       39708
 NSgBfM=    49    49    49    49.
 Leave Link  302 at Fri Dec 14 16:22:54 2012, MaxMem=  346030080 cpu:       0.4
 (Enter /afs/physto.se/common/scratch/odelius/x86_64//g03root/g03/l303.exe)
 DipDrv:  MaxL=1.
 Leave Link  303 at Fri Dec 14 16:22:56 2012, MaxMem=  346030080 cpu:       0.0
 (Enter /afs/physto.se/common/scratch/odelius/x86_64//g03root/g03/l401.exe)
 Initial guess read from the read-write file:
 Guess basis will be translated and rotated to current coordinates.
 Initial guess orbital symmetries:
       Occupied  (A') (A') (A') (A') (A') (A") (A') (A') (A") (A')
                 (A') (A") (A')
       Virtual   (A') (A') (A') (A") (A') (A') (A") (A') (A') (A")
                 (A') (A') (A") (A') (A") (A') (A') (A") (A') (A')
                 (A") (A') (A") (A") (A') (A') (A') (A") (A') (A')
                 (A") (A') (A") (A') (A') (A')
 The electronic state of the initial guess is 1-A'.
 Generating alternative initial guess.
 Harris functional with IExCor=  402 diagonalized for initial guess.
 ExpMin= 1.43D-01 ExpMax= 2.52D+04 ExpMxC= 3.78D+03 IAcc=1 IRadAn=         1 AccDes= 1.00D-06
 HarFok:  IExCor= 402 AccDes= 1.00D-06 IRadAn=         1 IDoV=1
 ScaDFX=  1.000000  1.000000  1.000000  1.000000
 Harris En= -500.121653502064    
 Leave Link  401 at Fri Dec 14 16:22:57 2012, MaxMem=  346030080 cpu:       0.2
 (Enter /afs/physto.se/common/scratch/odelius/x86_64//g03root/g03/l502.exe)
 Closed shell SCF:
 Requested convergence on RMS density matrix=1.00D-08 within 128 cycles.
 Requested convergence on MAX density matrix=1.00D-06.
 Requested convergence on             energy=1.00D-06.
 No special actions if energy rises.
 Using DIIS extrapolation, IDIIS=  1040.
 Integral symmetry usage will be decided dynamically.
        39691 words used for storage of precomputed grid.
 Keep R1 integrals in memory in canonical form, NReq=     1307356.
 IEnd=     65166 IEndB=     65166 NGot= 346030080 MDV= 345233066
 LenX= 345233066
 Symmetry not used in FoFDir.
 MinBra= 0 MaxBra= 2 Meth= 1.
 IRaf=       0 NMat=   1 IRICut=       1 DoRegI=T DoRafI=F ISym2E= 0 JSym2E=0.
 Integral accuracy reduced to 1.0D-05 until final iterations.

 Cycle   1  Pass 0  IDiag  1:
 E= -500.112453768693    
 DIIS: error= 8.98D-04 at cycle   1 NSaved=   1.
 NSaved= 1 IEnMin= 1 EnMin= -500.112453768693     IErMin= 1 ErrMin= 8.98D-04
 ErrMax= 8.98D-04 EMaxC= 1.00D-01 BMatC= 3.48D-05 BMatP= 3.48D-05
 IDIUse=3 WtCom= 9.91D-01 WtEn= 8.98D-03
 Coeff-Com:  0.100D+01
 Coeff-En:   0.100D+01
 Coeff:      0.100D+01
 Gap=     0.323 Goal=   None    Shift=    0.000
 RMSDP=1.45D-04 MaxDP=1.24D-03              OVMax= 2.01D-03

 Cycle   2  Pass 0  IDiag  1:
 E= -500.112487309226     Delta-E=       -0.000033540533 Rises=F Damp=F
 DIIS: error= 3.06D-04 at cycle   2 NSaved=   2.
 NSaved= 2 IEnMin= 2 EnMin= -500.112487309226     IErMin= 2 ErrMin= 3.06D-04
 ErrMax= 3.06D-04 EMaxC= 1.00D-01 BMatC= 6.15D-06 BMatP= 3.48D-05
 IDIUse=3 WtCom= 9.97D-01 WtEn= 3.06D-03
 Coeff-Com:  0.221D+00 0.779D+00
 Coeff-En:   0.000D+00 0.100D+01
 Coeff:      0.221D+00 0.779D+00
 Gap=     0.322 Goal=   None    Shift=    0.000
 RMSDP=7.48D-05 MaxDP=1.06D-03 DE=-3.35D-05 OVMax= 1.57D-03

 Cycle   3  Pass 0  IDiag  1:
 E= -500.112489401395     Delta-E=       -0.000002092169 Rises=F Damp=F
 DIIS: error= 2.68D-04 at cycle   3 NSaved=   3.
 NSaved= 3 IEnMin= 3 EnMin= -500.112489401395     IErMin= 3 ErrMin= 2.68D-04
 ErrMax= 2.68D-04 EMaxC= 1.00D-01 BMatC= 3.84D-06 BMatP= 6.15D-06
 IDIUse=3 WtCom= 9.97D-01 WtEn= 2.68D-03
 Coeff-Com:  0.999D-02 0.440D+00 0.550D+00
 Coeff-En:   0.000D+00 0.404D+00 0.596D+00
 Coeff:      0.996D-02 0.440D+00 0.550D+00
 Gap=     0.322 Goal=   None    Shift=    0.000
 RMSDP=3.93D-05 MaxDP=5.71D-04 DE=-2.09D-06 OVMax= 8.52D-04

 Cycle   4  Pass 0  IDiag  1:
 E= -500.112493320623     Delta-E=       -0.000003919228 Rises=F Damp=F
 DIIS: error= 2.42D-05 at cycle   4 NSaved=   4.
 NSaved= 4 IEnMin= 4 EnMin= -500.112493320623     IErMin= 4 ErrMin= 2.42D-05
 ErrMax= 2.42D-05 EMaxC= 1.00D-01 BMatC= 4.43D-08 BMatP= 3.84D-06
 IDIUse=1 WtCom= 1.00D+00 WtEn= 0.00D+00
 Coeff-Com: -0.595D-02 0.104D+00 0.182D+00 0.720D+00
 Coeff:     -0.595D-02 0.104D+00 0.182D+00 0.720D+00
 Gap=     0.322 Goal=   None    Shift=    0.000
 RMSDP=5.62D-06 MaxDP=1.10D-04 DE=-3.92D-06 OVMax= 1.22D-04

 Initial convergence to 1.0D-05 achieved.  Increase integral accuracy.
 Cycle   5  Pass 1  IDiag  1:
 E= -500.112534741451     Delta-E=       -0.000041420828 Rises=F Damp=F
 DIIS: error= 1.67D-05 at cycle   1 NSaved=   1.
 NSaved= 1 IEnMin= 1 EnMin= -500.112534741451     IErMin= 1 ErrMin= 1.67D-05
 ErrMax= 1.67D-05 EMaxC= 1.00D-01 BMatC= 1.15D-08 BMatP= 1.15D-08
 IDIUse=1 WtCom= 1.00D+00 WtEn= 0.00D+00
 Coeff-Com:  0.100D+01
 Coeff:      0.100D+01
 Gap=     0.322 Goal=   None    Shift=    0.000
 RMSDP=5.62D-06 MaxDP=1.10D-04 DE=-4.14D-05 OVMax= 5.86D-05

 Cycle   6  Pass 1  IDiag  1:
 E= -500.112534745427     Delta-E=       -0.000000003976 Rises=F Damp=F
 DIIS: error= 8.38D-06 at cycle   2 NSaved=   2.
 NSaved= 2 IEnMin= 2 EnMin= -500.112534745427     IErMin= 2 ErrMin= 8.38D-06
 ErrMax= 8.38D-06 EMaxC= 1.00D-01 BMatC= 4.79D-09 BMatP= 1.15D-08
 IDIUse=1 WtCom= 1.00D+00 WtEn= 0.00D+00
 Coeff-Com:  0.373D+00 0.627D+00
 Coeff:      0.373D+00 0.627D+00
 Gap=     0.322 Goal=   None    Shift=    0.000
 RMSDP=2.50D-06 MaxDP=5.31D-05 DE=-3.98D-09 OVMax= 3.37D-05

 Cycle   7  Pass 1  IDiag  1:
 E= -500.112534750238     Delta-E=       -0.000000004811 Rises=F Damp=F
 DIIS: error= 1.97D-06 at cycle   3 NSaved=   3.
 NSaved= 3 IEnMin= 3 EnMin= -500.112534750238     IErMin= 3 ErrMin= 1.97D-06
 ErrMax= 1.97D-06 EMaxC= 1.00D-01 BMatC= 3.52D-10 BMatP= 4.79D-09
 IDIUse=1 WtCom= 1.00D+00 WtEn= 0.00D+00
 Coeff-Com:  0.231D-01 0.216D+00 0.761D+00
 Coeff:      0.231D-01 0.216D+00 0.761D+00
 Gap=     0.322 Goal=   None    Shift=    0.000
 RMSDP=5.68D-07 MaxDP=1.09D-05 DE=-4.81D-09 OVMax= 1.18D-05

 Cycle   8  Pass 1  IDiag  1:
 E= -500.112534750558     Delta-E=       -0.000000000320 Rises=F Damp=F
 DIIS: error= 1.23D-06 at cycle   4 NSaved=   4.
 NSaved= 4 IEnMin= 4 EnMin= -500.112534750558     IErMin= 4 ErrMin= 1.23D-06
 ErrMax= 1.23D-06 EMaxC= 1.00D-01 BMatC= 7.35D-11 BMatP= 3.52D-10
 IDIUse=1 WtCom= 1.00D+00 WtEn= 0.00D+00
 Coeff-Com: -0.536D-02 0.932D-01 0.440D+00 0.472D+00
 Coeff:     -0.536D-02 0.932D-01 0.440D+00 0.472D+00
 Gap=     0.322 Goal=   None    Shift=    0.000
 RMSDP=1.53D-07 MaxDP=1.91D-06 DE=-3.20D-10 OVMax= 3.11D-06

 Cycle   9  Pass 1  IDiag  1:
 E= -500.112534750634     Delta-E=       -0.000000000076 Rises=F Damp=F
 DIIS: error= 4.74D-08 at cycle   5 NSaved=   5.
 NSaved= 5 IEnMin= 5 EnMin= -500.112534750634     IErMin= 5 ErrMin= 4.74D-08
 ErrMax= 4.74D-08 EMaxC= 1.00D-01 BMatC= 9.35D-14 BMatP= 7.35D-11
 IDIUse=1 WtCom= 1.00D+00 WtEn= 0.00D+00
 Coeff-Com: -0.141D-02 0.131D-01 0.732D-01 0.837D-01 0.831D+00
 Coeff:     -0.141D-02 0.131D-01 0.732D-01 0.837D-01 0.831D+00
 Gap=     0.322 Goal=   None    Shift=    0.000
 RMSDP=7.78D-09 MaxDP=8.95D-08 DE=-7.61D-11 OVMax= 1.07D-07

 SCF Done:  E(RB+HF-LYP) =  -500.112534751     A.U. after    9 cycles
             Convg  =    0.7778D-08             -V/T =  2.0037
             S**2   =   0.0000
 KE= 4.982922422082D+02 PE=-1.287767174562D+03 EE= 2.384606105146D+02
 Leave Link  502 at Fri Dec 14 16:23:00 2012, MaxMem=  346030080 cpu:       2.5
 (Enter /afs/physto.se/common/scratch/odelius/x86_64//g03root/g03/l701.exe)
 Compute integral first derivatives.
 ... and contract with generalized density number  0.
 Leave Link  701 at Fri Dec 14 16:23:01 2012, MaxMem=  346030080 cpu:       0.5
 (Enter /afs/physto.se/common/scratch/odelius/x86_64//g03root/g03/l702.exe)
 L702 exits ... SP integral derivatives will be done elsewhere.
 Leave Link  702 at Fri Dec 14 16:23:03 2012, MaxMem=  346030080 cpu:       0.0
 (Enter /afs/physto.se/common/scratch/odelius/x86_64//g03root/g03/l703.exe)
 Compute integral first derivatives, UseDBF=F.
 Integral derivatives from FoFDir, PRISM(SPDF).
 Petite list used in FoFDir.
 MinBra= 0 MaxBra= 2 Meth= 1.
 IRaf=       0 NMat=   1 IRICut=       1 DoRegI=T DoRafI=F ISym2E= 1 JSym2E=1.
 Leave Link  703 at Fri Dec 14 16:23:05 2012, MaxMem=  346030080 cpu:       2.2
 (Enter /afs/physto.se/common/scratch/odelius/x86_64//g03root/g03/l716.exe)
 Dipole        =-2.36822640D-05 8.21156561D-01 1.98397639D-16
 ***** Axes restored to original set *****
 -------------------------------------------------------------------
 Center     Atomic                   Forces (Hartrees/Bohr)
 Number     Number              X              Y              Z
 -------------------------------------------------------------------
    1          6           0.000024980   -0.001651300    0.000000000
    2          1          -0.000016369    0.000821534    0.000000000
    3          1          -0.000010169    0.000811454    0.000005724
    4          1          -0.000010169    0.000811454   -0.000005724
    5         17           0.000011725   -0.000793141    0.000000000
 -------------------------------------------------------------------
 Cartesian Forces:  Max     0.001651300 RMS     0.000597160
 Leave Link  716 at Fri Dec 14 16:23:06 2012, MaxMem=  346030080 cpu:       0.0
 (Enter /afs/physto.se/common/scratch/odelius/x86_64//g03root/g03/l103.exe)

 GradGradGradGradGradGradGradGradGradGradGradGradGradGradGradGradGradGrad
 Berny optimization.
 Internal  Forces:  Max     0.000843754 RMS     0.000694285
 Search for a local minimum.
 Step number   4 out of a maximum of  20
 All quantities printed in internal units (Hartrees-Bohrs-Radians)
 Update second derivatives using D2CorX and points  1  2  3  4
 Trust test= 1.21D+00 RLast= 4.12D-02 DXMaxT set to 6.00D-01
 The second derivative matrix:
                          R1        R2        R3        R4        A1
           R1           0.35702
           R2          -0.00052   0.35688
           R3          -0.00052  -0.00053   0.35688
           R4           0.00592   0.00589   0.00589   0.19232
           A1           0.00367   0.00366   0.00366  -0.02849   0.15789
[...]
 Red. masses --     7.3428                 1.1679                 1.1680
 Frc consts  --     2.2409                 0.7378                 0.7379
 IR Inten    --    28.9231                 3.9633                 3.9659
 Atom AN      X      Y      Z        X      Y      Z        X      Y      Z
   1   6     0.00   0.62   0.00     0.00   0.00   0.11     0.11   0.00   0.00
   2   1    -0.06   0.43   0.00     0.00   0.00  -0.27    -0.13  -0.75   0.00
   3   1     0.03   0.43   0.05     0.06   0.65  -0.16    -0.24   0.38   0.06
   4   1     0.03   0.43  -0.05    -0.06  -0.65  -0.16    -0.24   0.38  -0.06
   5  17     0.00  -0.25   0.00     0.00   0.00  -0.02    -0.02   0.00   0.00
                     4                      5                      6
                    A'                     A'                     A"
 Frequencies --  1398.2211              1495.0959              1495.1593
 Red. masses --     1.1282                 1.0557                 1.0557
 Frc consts  --     1.2995                 1.3903                 1.3905
 IR Inten    --    18.2078                 5.9587                 5.9570
 Atom AN      X      Y      Z        X      Y      Z        X      Y      Z
   1   6     0.00  -0.10   0.00     0.07   0.00   0.00     0.00   0.00  -0.07
   2   1     0.19   0.54   0.00     0.15   0.32   0.00     0.00   0.00   0.74
   3   1    -0.10   0.54  -0.17    -0.52  -0.16   0.38    -0.38   0.27   0.07
   4   1    -0.10   0.54   0.17    -0.52  -0.16  -0.38     0.38  -0.27   0.07
   5  17     0.00  -0.01   0.00     0.00   0.00   0.00     0.00   0.00   0.00
                     7                      8                      9
                    A'                     A"                     A'
 Frequencies --  3087.4221              3191.9818              3192.1627
 Red. masses --     1.0269                 1.1094                 1.1094
 Frc consts  --     5.7672                 6.6599                 6.6606
 IR Inten    --    22.2138                 6.9062                 6.9145
 Atom AN      X      Y      Z        X      Y      Z        X      Y      Z
   1   6     0.00   0.04   0.00     0.00   0.00   0.10     0.10   0.00   0.00
   2   1     0.55  -0.17   0.00     0.00   0.00   0.02    -0.78   0.24   0.00
   3   1    -0.28  -0.17  -0.48    -0.34  -0.21  -0.58    -0.18  -0.12  -0.34
   4   1    -0.28  -0.17   0.48     0.34   0.21  -0.58    -0.18  -0.12   0.34
   5  17     0.00   0.00   0.00     0.00   0.00   0.00     0.00   0.00   0.00

 -------------------
 - Thermochemistry -
 -------------------
 Temperature   298.150 Kelvin.  Pressure   1.00000 Atm.
 Atom  1 has atomic number  6 and mass  12.00000
 Atom  2 has atomic number  1 and mass   1.00783
 Atom  3 has atomic number  1 and mass   1.00783
 Atom  4 has atomic number  1 and mass   1.00783
 Atom  5 has atomic number 17 and mass  34.96885
 Molecular mass:    49.99233 amu.
 Principal axes and moments of inertia in atomic units:
                           1         2         3
     EIGENVALUES --    11.52298 138.37973 138.38025
           X            0.00000   0.00000   1.00000
           Y            1.00000   0.00000   0.00000
           Z            0.00000   1.00000   0.00000
 This molecule is an asymmetric top.
 Rotational symmetry number  1.
 Rotational temperatures (Kelvin)      7.51662     0.62591     0.62591
 Rotational constants (GHZ):         156.62110    13.04195    13.04190
 Zero-point vibrational energy      99593.8 (Joules/Mol)
                                   23.80350 (Kcal/Mol)
 Vibrational temperatures:   1035.50  1489.87  1489.89  2011.73  2151.11
          (Kelvin)           2151.20  4442.11  4592.54  4592.80
 
 Zero-point correction=                           0.037933 (Hartree/Particle)
 Thermal correction to Energy=                    0.040953
 Thermal correction to Enthalpy=                  0.041897
 Thermal correction to Gibbs Free Energy=         0.014259
 Sum of electronic and zero-point Energies=           -500.074615
 Sum of electronic and thermal Energies=              -500.071596
 Sum of electronic and thermal Enthalpies=            -500.070652
 Sum of electronic and thermal Free Energies=         -500.098289
 
                     E (Thermal)             CV                S
                      KCal/Mol        Cal/Mol-Kelvin    Cal/Mol-Kelvin
 Total                   25.698              7.693             58.168
 Electronic               0.000              0.000              0.000
 Translational            0.889              2.981             37.651
 Rotational               0.889              2.981             20.029
 Vibrational             23.921              1.731              0.488
                       Q            Log10(Q)             Ln(Q)
 Total Bot       0.276168D-06         -6.558827        -15.102257
 Total V=0       0.774885D+11         10.889237         25.073395
 Vib (Bot)       0.373819D-17        -17.427339        -40.127931
 Vib (V=0)       0.104888D+01          0.020725          0.047721
 Electronic      0.100000D+01          0.000000          0.000000
 Translational   0.138935D+08          7.142810         16.446928
 Rotational      0.531743D+04          3.725702          8.578746
 
                                                 Reactant. CONTINUING FROM: reac.
 log
                                                             IR Spectrum
 
      3   3                                                              1   1             1                                         
      1   0                                                              4   3             0            7                            
      9   8                                                              9   9             3            2                            
      2   7                                                              5   8             6            0                            
 
      X   X                                                              X   X             X            X                            
      X   X                                                              X   X             X            X                            
      X   X                                                              X   X             X            X                            
      X   X                                                              X   X             X            X                            
      X   X                                                              X   X             X            X                            
      X   X                                                              X   X                          X                            
      X   X                                                              X   X                          X                            
      X   X                                                              X   X                          X                            
      X   X                                                                  X                          X                            
      X   X                                                                  X                          X                            
          X                                                                  X                          X                            
          X                                                                  X                          X                            
          X                                                                  X                          X                            
          X                                                                                             X                            
          X                                                                                             X                            
                                                                                                        X                            
                                                                                                        X                            
                                                                                                        X                            
                                                                                                        X                            
                                                                                                        X                            
 
 ***** Axes restored to original set *****
 -------------------------------------------------------------------
 Center     Atomic                   Forces (Hartrees/Bohr)
 Number     Number              X              Y              Z
 -------------------------------------------------------------------
    1          6          -0.000003301    0.000216748    0.000000000
    2          1           0.000002716   -0.000014999    0.000000000
    3          1           0.000002048   -0.000020821   -0.000000319
    4          1           0.000002048   -0.000020821    0.000000319
    5         17          -0.000003512   -0.000160107    0.000000000
 -------------------------------------------------------------------
 Cartesian Forces:  Max     0.000216748 RMS     0.000070117
 Force constants in Cartesian coordinates: 
                1             2             3             4             5
      1  0.577711D+00
      2  0.467856D-02  0.334995D+00
      3  0.000000D+00  0.000000D+00  0.577883D+00
      4 -0.313301D+00  0.760051D-01  0.000000D+00  0.329216D+00
      5  0.770820D-01 -0.619629D-01  0.000000D+00 -0.802674D-01  0.756079D-01
      6  0.000000D+00  0.000000D+00 -0.524839D-01  0.000000D+00  0.000000D+00
      7 -0.115333D+00 -0.413627D-01 -0.110263D+00 -0.113165D-01 -0.978239D-02
      8 -0.418894D-01 -0.665773D-01 -0.730057D-01  0.330445D-02  0.530147D-02
      9 -0.110279D+00 -0.721077D-01 -0.245824D+00  0.197207D-02  0.130553D-02
     10 -0.115333D+00 -0.413627D-01  0.110263D+00 -0.113165D-01 -0.978239D-02
     11 -0.418894D-01 -0.665773D-01  0.730057D-01  0.330445D-02  0.530147D-02
     12  0.110279D+00  0.721077D-01 -0.245824D+00 -0.197207D-02 -0.130553D-02
     13 -0.337441D-01  0.204176D-02  0.000000D+00  0.671780D-02  0.227501D-01
     14  0.201819D-02 -0.139877D+00  0.000000D+00 -0.234665D-02 -0.242479D-01
     15  0.000000D+00  0.000000D+00 -0.337503D-01  0.000000D+00  0.000000D+00
                6             7             8             9            10
      6  0.468707D-01
      7 -0.258977D-01  0.114956D+00
      8  0.833627D-02  0.432362D-01  0.804236D-01
      9  0.227311D-02  0.119426D+00  0.759782D-01  0.256186D+00
     10  0.258977D-01  0.890541D-02  0.589352D-02 -0.137214D-01  0.114956D+00
     11 -0.833627D-02  0.589352D-02  0.565256D-02 -0.781613D-02  0.432362D-01
     12  0.227311D-02  0.137214D-01  0.781613D-02 -0.182837D-01 -0.119426D+00
     13  0.000000D+00  0.278873D-02 -0.105448D-01  0.260302D-02  0.278873D-02
     14  0.000000D+00  0.201538D-02 -0.248003D-01  0.264010D-02  0.201538D-02
     15  0.106690D-02  0.301313D-02 -0.191249D-01  0.564865D-02 -0.301313D-02
               11            12            13            14            15
     11  0.804236D-01
     12 -0.759782D-01  0.256186D+00
     13 -0.105448D-01 -0.260302D-02  0.214488D-01
     14 -0.248003D-01 -0.264010D-02 -0.370231D-02  0.213726D+00
     15  0.191249D-01  0.564865D-02  0.000000D+00  0.000000D+00  0.213861D-01
 Force constants in internal coordinates: 
                1             2             3             4             5
      1  0.352342D+00
      2  0.195211D-02  0.352277D+00
      3  0.195211D-02  0.195225D-02  0.352277D+00
      4  0.500603D-02  0.496934D-02  0.496934D-02  0.213797D+00
      5  0.976770D-02  0.974890D-02 -0.795726D-02 -0.249837D-01  0.109826D+00
      6  0.976770D-02 -0.795726D-02  0.974890D-02 -0.249837D-01 -0.192878D-01
      7 -0.349742D-02 -0.421623D-02 -0.421623D-02  0.259792D-01 -0.230127D-01
      8 -0.797675D-02  0.974157D-02  0.974157D-02 -0.250023D-01 -0.192889D-01
      9 -0.425754D-02 -0.354187D-02 -0.422866D-02  0.259687D-01 -0.230290D-01
     10 -0.425754D-02 -0.422866D-02 -0.354187D-02  0.259687D-01 -0.280062D-01
                6             7             8             9            10
      6  0.109826D+00
      7 -0.230127D-01  0.136055D+00
      8 -0.192889D-01 -0.279948D-01  0.109813D+00
      9 -0.280062D-01 -0.295591D-01 -0.230219D-01  0.136082D+00
     10 -0.230290D-01 -0.295591D-01 -0.230219D-01 -0.295590D-01  0.136082D+00
 Leave Link  716 at Fri Dec 14 16:25:24 2012, MaxMem=  346030080 cpu:       0.0
 (Enter /afs/physto.se/common/scratch/odelius/x86_64//g03root/g03/l103.exe)

 GradGradGradGradGradGradGradGradGradGradGradGradGradGradGradGradGradGrad
 Berny optimization.
 Internal  Forces:  Max     0.000160010 RMS     0.000052744
 Search for a local minimum.
 Step number   1 out of a maximum of   2
 All quantities printed in internal units (Hartrees-Bohrs-Radians)
 Second derivative matrix not updated -- analytic derivatives used.
 The second derivative matrix:
                          R1        R2        R3        R4        A1
           R1           0.35234
           R2           0.00195   0.35228
           R3           0.00195   0.00195   0.35228
           R4           0.00501   0.00497   0.00497   0.21380
           A1           0.00977   0.00975  -0.00796  -0.02498   0.10983
           A2           0.00977  -0.00796   0.00975  -0.02498  -0.01929
           A3          -0.00350  -0.00422  -0.00422   0.02598  -0.02301
           A4          -0.00798   0.00974   0.00974  -0.02500  -0.01929
           A5          -0.00426  -0.00354  -0.00423   0.02597  -0.02303
           A6          -0.00426  -0.00423  -0.00354   0.02597  -0.02801
                          A2        A3        A4        A5        A6
           A2           0.10983
           A3          -0.02301   0.13606
           A4          -0.01929  -0.02799   0.10981
           A5          -0.02801  -0.02956  -0.02302   0.13608
           A6          -0.02303  -0.02956  -0.02302  -0.02956   0.13608
     Eigenvalues ---    0.10906   0.12707   0.12708   0.16624   0.16626
     Eigenvalues ---    0.25150   0.35174   0.35179   0.357631000.00000
 Angle between quadratic step and forces=  20.94 degrees.
 Linear search not attempted -- first point.
 Iteration  1 RMS(Cart)=  0.00023412 RMS(Int)=  0.00000007
 Iteration  2 RMS(Cart)=  0.00000005 RMS(Int)=  0.00000004
 Variable       Old X    -DE/DX   Delta X   Delta X   Delta X     New X
                                 (Linear)    (Quad)   (Total)
    R1        2.05826  -0.00001   0.00000  -0.00005  -0.00005   2.05821
    R2        2.05826  -0.00001   0.00000  -0.00005  -0.00005   2.05821
    R3        2.05826  -0.00001   0.00000  -0.00005  -0.00005   2.05821
    R4        3.40743   0.00016   0.00000   0.00096   0.00096   3.40839
    A1        1.92772   0.00002   0.00000   0.00029   0.00029   1.92801
    A2        1.92772   0.00002   0.00000   0.00029   0.00029   1.92801
    A3        1.89318  -0.00002   0.00000  -0.00030  -0.00030   1.89288
    A4        1.92782   0.00002   0.00000   0.00029   0.00029   1.92811
    A5        1.89319  -0.00002   0.00000  -0.00030  -0.00030   1.89289
    A6        1.89319  -0.00002   0.00000  -0.00030  -0.00030   1.89289
         Item               Value     Threshold  Converged?
 Maximum Force            0.000160     0.000450     YES
 RMS     Force            0.000053     0.000300     YES
 Maximum Displacement     0.000555     0.001800     YES
 RMS     Displacement     0.000234     0.001200     YES
 Predicted change in Energy=-9.414631D-08
 Optimization completed.
    -- Stationary point found.
                           ----------------------------
                           !   Optimized Parameters   !
                           ! (Angstroms and Degrees)  !
 --------------------------                            --------------------------
 ! Name  Definition              Value          Derivative Info.                !
 --------------------------------------------------------------------------------
 ! R1    R(1,2)                  1.0892         -DE/DX =    0.0                 !
 ! R2    R(1,3)                  1.0892         -DE/DX =    0.0                 !
 ! R3    R(1,4)                  1.0892         -DE/DX =    0.0                 !
 ! R4    R(1,5)                  1.8031         -DE/DX =    0.0002              !
 ! A1    A(2,1,3)              110.4504         -DE/DX =    0.0                 !
 ! A2    A(2,1,4)              110.4504         -DE/DX =    0.0                 !
 ! A3    A(2,1,5)              108.4712         -DE/DX =    0.0                 !
 ! A4    A(3,1,4)              110.4558         -DE/DX =    0.0                 !
 ! A5    A(3,1,5)              108.4716         -DE/DX =    0.0                 !
 ! A6    A(4,1,5)              108.4716         -DE/DX =    0.0                 !
 --------------------------------------------------------------------------------
 GradGradGradGradGradGradGradGradGradGradGradGradGradGradGradGradGradGrad

 Leave Link  103 at Fri Dec 14 16:25:26 2012, MaxMem=  346030080 cpu:       0.0
 (Enter /afs/physto.se/common/scratch/odelius/x86_64//g03root/g03/l9999.exe)
 1\1\GINC-QCMDLX10\Freq\RB3LYP\6-31G(d,p)\C1H3Cl1\TK\14-Dec-2012\0\\#P 
 GEOM=ALLCHECK GUESS=READ SCRF=CHECK GENCHK RB3LYP/6-31G(D,P) FREQ\\Rea
 ctant. CONTINUING FROM: reac.log\\0,1\C,-0.0218284754,1.1389442818,0.\
 H,-1.0613230837,1.4641668829,0.\H,0.4879641529,1.4938706124,0.89468603
 61\H,0.4879641529,1.4938706124,-0.8946860361\Cl,0.01272739,-0.66385728
 23,0.\\Version=x86-Linux-G03RevB.04\State=1-A'\HF=-500.1125486\RMSD=1.
 657e-09\RMSF=7.012e-05\Dipole=-0.0157007,0.8183184,0.\DipoleDeriv=0.11
 77871,-0.011284,0.,-0.0112743,0.7054326,0.,0.,0.,0.1175394,-0.0502189,
 0.0544597,0.,0.0520488,-0.0658294,0.,0.,0.,0.0918867,0.0578864,-0.0246
 583,-0.0597453,-0.0234442,-0.0687934,-0.0459417,-0.0597018,-0.0480626,
 -0.0131095,0.0578864,-0.0246583,0.0597453,-0.0234442,-0.0687934,0.0459
 417,0.0597018,0.0480626,-0.0131095,-0.183341,0.006141,0.,0.006114,-0.5
 020165,0.,0.,0.,-0.1832071\Polar=16.4778364,-0.2247688,28.2015418,0.,0
 .,16.4741053\PG=CS [SG(C1H1Cl1),X(H2)]\NImag=0\\0.57771129,0.00467856,
 0.33499477,0.,0.,0.57788256,-0.31330068,0.07600511,0.,0.32921592,0.077
 08205,-0.06196288,0.,-0.08026737,0.07560786,0.,0.,-0.05248386,0.,0.,0.
 04687074,-0.11533326,-0.04136272,-0.11026260,-0.01131652,-0.00978239,-
 0.02589773,0.11495563,-0.04188940,-0.06657729,-0.07300572,0.00330445,0
 .00530147,0.00833627,0.04323620,0.08042358,-0.11027941,-0.07210774,-0.
 24582421,0.00197207,0.00130553,0.00227311,0.11942576,0.07597824,0.2561
 8618,-0.11533326,-0.04136272,0.11026260,-0.01131652,-0.00978239,0.0258
 9773,0.00890541,0.00589352,-0.01372144,0.11495563,-0.04188940,-0.06657
 729,0.07300572,0.00330445,0.00530147,-0.00833627,0.00589352,0.00565256
 ,-0.00781613,0.04323620,0.08042358,0.11027941,0.07210774,-0.24582421,-
 0.00197207,-0.00130553,0.00227311,0.01372144,0.00781613,-0.01828373,-0
 .11942576,-0.07597824,0.25618618,-0.03374409,0.00204176,0.,0.00671780,
 0.02275010,0.,0.00278873,-0.01054478,0.00260302,0.00278873,-0.01054478
 ,-0.00260302,0.02144882,0.00201819,-0.13987730,0.,-0.00234665,-0.02424
 793,0.,0.00201538,-0.02480033,0.00264010,0.00201538,-0.02480033,-0.002
 64010,-0.00370231,0.21372589,0.,0.,-0.03375027,0.,0.,0.00106690,0.0030
 1313,-0.01912492,0.00564865,-0.00301313,0.01912492,0.00564865,0.,0.,0.
 02138607\\0.00000330,-0.00021675,0.,-0.00000272,0.00001500,0.,-0.00000
 205,0.00002082,0.00000032,-0.00000205,0.00002082,-0.00000032,0.0000035
 1,0.00016011,0.\\\@


 WOE UNTO THEM THAT CALL EVIL GOOD, AND GOOD EVIL      
 Job cpu time:  0 days  0 hours  2 minutes 17.4 seconds.
 File lengths (MBytes):  RWF=     11 Int=      0 D2E=      0 Chk=      4 Scr=      1
 Normal termination of Gaussian 03 at Fri Dec 14 16:25:52 2012.
