 Entering Gaussian System, Link 0=g03
 Input=ch3br.com
 Output=ch3br.log
 Initial command:
 /afs/physto.se/common/scratch/odelius/x86_64//g03root/g03/l1.exe /data3/tk/scrg03/Gau-19571.inp -scrdir=/data3/tk/scrg03/
 Entering Link 1 = /afs/physto.se/common/scratch/odelius/x86_64//g03root/g03/l1.exe PID=     19573.
  
 Copyright (c) 1988,1990,1992,1993,1995,1998,2003, Gaussian, Inc.
                  All Rights Reserved.
  
 This is the Gaussian(R) 03 program.  It is based on the
 the Gaussian(R) 98 system (copyright 1998, Gaussian, Inc.),
 the Gaussian(R) 94 system (copyright 1995, Gaussian, Inc.),
 the Gaussian 92(TM) system (copyright 1992, Gaussian, Inc.),
 the Gaussian 90(TM) system (copyright 1990, Gaussian, Inc.),
 the Gaussian 88(TM) system (copyright 1988, Gaussian, Inc.),
 the Gaussian 86(TM) system (copyright 1986, Carnegie Mellon
 University), and the Gaussian 82(TM) system (copyright 1983,
 Carnegie Mellon University). Gaussian is a federally registered
 trademark of Gaussian, Inc.
  
 This software contains proprietary and confidential information,
 including trade secrets, belonging to Gaussian, Inc.
  
 This software is provided under written license and may be
 used, copied, transmitted, or stored only in accord with that
 written license.
  
 The following legend is applicable only to US Government
 contracts under DFARS:
  
                    RESTRICTED RIGHTS LEGEND
  
 Use, duplication or disclosure by the US Government is subject
 to restrictions as set forth in subparagraph (c)(1)(ii) of the
 Rights in Technical Data and Computer Software clause at DFARS
 252.227-7013.
  
 Gaussian, Inc.
 Carnegie Office Park, Building 6, Pittsburgh, PA 15106 USA
  
 The following legend is applicable only to US Government
 contracts under FAR:
  
                    RESTRICTED RIGHTS LEGEND
  
 Use, reproduction and disclosure by the US Government is subject
 to restrictions as set forth in subparagraph (c) of the
 Commercial Computer Software - Restricted Rights clause at FAR
 52.227-19.
  
 Gaussian, Inc.
 Carnegie Office Park, Building 6, Pittsburgh, PA 15106 USA
  
  
 ---------------------------------------------------------------
 Warning -- This program may not be used in any manner that
 competes with the business of Gaussian, Inc. or will provide
 assistance to any competitor of Gaussian, Inc.  The licensee
 of this program is prohibited from giving any competitor of
 Gaussian, Inc. access to this program.  By using this program,
 the user acknowledges that Gaussian, Inc. is engaged in the
 business of creating and licensing software in the field of
 computational chemistry and represents and warrants to the
 licensee that it is not a competitor of Gaussian, Inc. and that
 it will not use this program in any manner prohibited above.
 ---------------------------------------------------------------
  

 Cite this work as:
 Gaussian 03, Revision B.04,
 M. J. Frisch, G. W. Trucks, H. B. Schlegel, G. E. Scuseria, 
 M. A. Robb, J. R. Cheeseman, J. A. Montgomery, Jr., T. Vreven, 
 K. N. Kudin, J. C. Burant, J. M. Millam, S. S. Iyengar, J. Tomasi, 
 V. Barone, B. Mennucci, M. Cossi, G. Scalmani, N. Rega, 
 G. A. Petersson, H. Nakatsuji, M. Hada, M. Ehara, K. Toyota, 
 R. Fukuda, J. Hasegawa, M. Ishida, T. Nakajima, Y. Honda, O. Kitao, 
 H. Nakai, M. Klene, X. Li, J. E. Knox, H. P. Hratchian, J. B. Cross, 
 C. Adamo, J. Jaramillo, R. Gomperts, R. E. Stratmann, O. Yazyev, 
 A. J. Austin, R. Cammi, C. Pomelli, J. W. Ochterski, P. Y. Ayala, 
 K. Morokuma, G. A. Voth, P. Salvador, J. J. Dannenberg, 
 V. G. Zakrzewski, S. Dapprich, A. D. Daniels, M. C. Strain, 
 O. Farkas, D. K. Malick, A. D. Rabuck, K. Raghavachari, 
 J. B. Foresman, J. V. Ortiz, Q. Cui, A. G. Baboul, S. Clifford, 
 J. Cioslowski, B. B. Stefanov, G. Liu, A. Liashenko, P. Piskorz, 
 I. Komaromi, R. L. Martin, D. J. Fox, T. Keith, M. A. Al-Laham, 
 C. Y. Peng, A. Nanayakkara, M. Challacombe, P. M. W. Gill, 
 B. Johnson, W. Chen, M. W. Wong, C. Gonzalez, and J. A. Pople, 
 Gaussian, Inc., Pittsburgh PA, 2003.
 
 *********************************************
 Gaussian 03:  x86-Linux-G03RevB.04 2-Jun-2003
                  14-Dec-2012 
 *********************************************
 %mem=330MW
 %nprocshared=4
 Will use up to    4 processors via shared memory.
 ----------------------------
 #p opt freq b3lyp 6-31G(d,p)
 ----------------------------
 1/14=-1,18=20,26=3,38=1/1,3;
 2/9=110,17=6,18=5,40=1/2;
 3/5=1,6=6,7=101,11=2,16=1,25=1,30=1,74=-5/1,2,3;
 4//1;
 5/5=2,38=5/2;
 6/7=2,8=2,9=2,10=2,28=1/1;
 7//1,2,3,16;
 1/14=-1,18=20/3(1);
 99//99;
 2/9=110/2;
 3/5=1,6=6,7=101,11=2,16=1,25=1,30=1,74=-5/1,2,3;
 4/5=5,16=3/1;
 5/5=2,38=5/2;
 7//1,2,3,16;
 1/14=-1,18=20/3(-5);
 2/9=110/2;
 6/7=2,8=2,9=2,10=2,19=2,28=1/1;
 99/9=1/99;
 Leave Link    1 at Fri Dec 14 16:25:21 2012, MaxMem=  346030080 cpu:       0.3
 (Enter /afs/physto.se/common/scratch/odelius/x86_64//g03root/g03/l101.exe)
 -----------------------------------
 Reactant. CONTINUING FROM: reac.log
 -----------------------------------
 Symbolic Z-matrix:
 Charge =  0 Multiplicity = 1
 C                     0.        0.31923   0. 
 H                    -1.04255   0.60874   0. 
 H                     0.51254   0.63803   0.89812 
 H                     0.51254   0.63803  -0.89812 
 Br                    0.03966  -1.72683   0. 
 
                    Isotopes and Nuclear Properties:

  Atom         1           2           3           4           5
 IAtWgt=          12           1           1           1          79
 AtmWgt=  12.0000000   1.0078250   1.0078250   1.0078250  78.9183361
 IAtSpn=           0           1           1           1           3
 AtZEff=   0.0000000   0.0000000   0.0000000   0.0000000   0.0000000
 AtQMom=   0.0000000   0.0000000   0.0000000   0.0000000  29.3000000
 AtGFac=   0.0000000   2.7928460   2.7928460   2.7928460   2.1063990
 Leave Link  101 at Fri Dec 14 16:25:23 2012, MaxMem=  346030080 cpu:       0.1
 (Enter /afs/physto.se/common/scratch/odelius/x86_64//g03root/g03/l103.exe)

 GradGradGradGradGradGradGradGradGradGradGradGradGradGradGradGradGradGrad
 Berny optimization.
 Initialization pass.
                           ----------------------------
                           !    Initial Parameters    !
                           ! (Angstroms and Degrees)  !
 --------------------------                            --------------------------
 ! Name  Definition              Value          Derivative Info.                !
 --------------------------------------------------------------------------------
 ! R1    R(1,2)                  1.082          estimate D2E/DX2                !
 ! R2    R(1,3)                  1.0821         estimate D2E/DX2                !
 ! R3    R(1,4)                  1.0821         estimate D2E/DX2                !
 ! R4    R(1,5)                  2.0464         estimate D2E/DX2                !
 ! A1    A(2,1,3)              112.1822         estimate D2E/DX2                !
 ! A2    A(2,1,4)              112.1822         estimate D2E/DX2                !
 ! A3    A(2,1,5)              106.63           estimate D2E/DX2                !
 ! A4    A(3,1,4)              112.1921         estimate D2E/DX2                !
 ! A5    A(3,1,5)              106.5816         estimate D2E/DX2                !
 ! A6    A(4,1,5)              106.5816         estimate D2E/DX2                !
 --------------------------------------------------------------------------------
 Trust Radius=3.00D-01 FncErr=1.00D-07 GrdErr=1.00D-06
 Number of steps in this run=  20 maximum allowed number of steps= 100.
 GradGradGradGradGradGradGradGradGradGradGradGradGradGradGradGradGradGrad

 Leave Link  103 at Fri Dec 14 16:25:25 2012, MaxMem=  346030080 cpu:       0.0
 (Enter /afs/physto.se/common/scratch/odelius/x86_64//g03root/g03/l202.exe)
                          Input orientation:                          
 ---------------------------------------------------------------------
 Center     Atomic     Atomic              Coordinates (Angstroms)
 Number     Number      Type              X           Y           Z
 ---------------------------------------------------------------------
    1          6             0        0.000000    0.319226    0.000000
    2          1             0       -1.042552    0.608735    0.000000
    3          1             0        0.512541    0.638030    0.898119
    4          1             0        0.512541    0.638030   -0.898119
    5         35             0        0.039659   -1.726827    0.000000
 ---------------------------------------------------------------------
                    Distance matrix (angstroms):
                    1          2          3          4          5
     1  C    0.000000
     2  H    1.082003   0.000000
     3  H    1.082105   1.796048   0.000000
     4  H    1.082105   1.796048   1.796238   0.000000
     5  Br   2.046437   2.574108   2.573477   2.573477   0.000000
 Stoichiometry    CH3Br
 Framework group  CS[SG(CHBr),X(H2)]
 Deg. of freedom     6
 Full point group                 CS      NOp   2
 Largest Abelian subgroup         CS      NOp   2
 Largest concise Abelian subgroup CS      NOp   2
                         Standard orientation:                         
 ---------------------------------------------------------------------
 Center     Atomic     Atomic              Coordinates (Angstroms)
 Number     Number      Type              X           Y           Z
 ---------------------------------------------------------------------
    1          6             0        0.000011   -1.606773    0.000000
    2          1             0        1.036757   -1.916432    0.000000
    3          1             0       -0.518612   -1.915585    0.898119
    4          1             0       -0.518612   -1.915585   -0.898119
    5         35             0        0.000011    0.439664    0.000000
 ---------------------------------------------------------------------
 Rotational constants (GHZ):    155.4409500      8.7174535      8.7173847
 Leave Link  202 at Fri Dec 14 16:25:26 2012, MaxMem=  346030080 cpu:       0.2
 (Enter /afs/physto.se/common/scratch/odelius/x86_64//g03root/g03/l301.exe)
 Standard basis: 6-31G(d,p) (6D, 7F)
 There are    42 symmetry adapted basis functions of A'  symmetry.
 There are    18 symmetry adapted basis functions of A"  symmetry.
 Integral buffers will be    262144 words long.
 Raffenetti 2 integral format.
 Two-electron integral symmetry is turned on.
    60 basis functions,   132 primitive gaussians,    60 cartesian basis functions
    22 alpha electrons       22 beta electrons
       nuclear repulsion energy        85.5784857387 Hartrees.
 IExCor= 402 DFT=T Ex=B+HF Corr=LYP ExCW=0 ScaHFX=  0.200000
 ScaDFX=  0.800000  0.720000  1.000000  0.810000
 IRadAn=      0 IRanWt=     -1 IRanGd=            0 ICorTp=0
 NAtoms=    5 NActive=    5 NUniq=    4 SFac= 1.75D+00 NAtFMM=   60 Big=F
 Leave Link  301 at Fri Dec 14 16:25:33 2012, MaxMem=  346030080 cpu:      16.6
 (Enter /afs/physto.se/common/scratch/odelius/x86_64//g03root/g03/l302.exe)
 NPDir=0 NMtPBC=     1 NCelOv=     1 NCel=       1 NClECP=     1 NCelD=      1
         NCelK=      1 NCelE2=     1 NClLst=     1 CellRange=     0.0.
 One-electron integrals computed using PRISM.
 One-electron integral symmetry used in STVInt
 NBasis=    60 RedAO= T  NBF=    42    18
 NBsUse=    60 1.00D-06 NBFU=    42    18
 Precomputing XC quadrature grid using
 IXCGrd= 2 IRadAn=           0 IRanWt=          -1 IRanGd=           0.
 NRdTot=     305 NPtTot=       42140 NUsed=       43524 NTot=       43540
 NSgBfM=    60    60    60    60.
 Leave Link  302 at Fri Dec 14 16:25:52 2012, MaxMem=  346030080 cpu:       7.4
 (Enter /afs/physto.se/common/scratch/odelius/x86_64//g03root/g03/l303.exe)
 DipDrv:  MaxL=1.
 Leave Link  303 at Fri Dec 14 16:25:54 2012, MaxMem=  346030080 cpu:       0.1
 (Enter /afs/physto.se/common/scratch/odelius/x86_64//g03root/g03/l401.exe)
 Harris functional with IExCor=  402 diagonalized for initial guess.
 ExpMin= 1.43D-01 ExpMax= 5.74D+05 ExpMxC= 5.74D+03 IAcc=2 IRadAn=         4 AccDes= 0.00D+00
 HarFok:  IExCor= 402 AccDes= 0.00D+00 IRadAn=         4 IDoV=1
 ScaDFX=  1.000000  1.000000  1.000000  1.000000
 Harris En= -2611.68790178702    
 Initial guess orbital symmetries:
       Occupied  (A') (A') (A') (A") (A') (A') (A') (A') (A") (A')
                 (A') (A") (A') (A") (A') (A') (A') (A") (A') (A')
                 (A") (A')
       Virtual   (A') (A') (A") (A') (A') (A') (A") (A') (A") (A')
                 (A') (A") (A') (A") (A') (A') (A") (A') (A') (A')
                 (A') (A") (A') (A') (A") (A') (A") (A") (A') (A')
                 (A') (A") (A') (A") (A') (A') (A') (A')
 The electronic state of the initial guess is 1-A'.
 Leave Link  401 at Fri Dec 14 16:26:18 2012, MaxMem=  346030080 cpu:       0.5
 (Enter /afs/physto.se/common/scratch/odelius/x86_64//g03root/g03/l502.exe)
 Closed shell SCF:
 Requested convergence on RMS density matrix=1.00D-08 within 128 cycles.
 Requested convergence on MAX density matrix=1.00D-06.
 Requested convergence on             energy=1.00D-06.
 No special actions if energy rises.
 Using DIIS extrapolation, IDIIS=  1040.
 Integral symmetry usage will be decided dynamically.
        43523 words used for storage of precomputed grid.
 Keep R1 integrals in memory in canonical form, NReq=     2290035.
 IEnd=     73026 IEndB=     73026 NGot= 346030080 MDV= 344301976
 LenX= 344301976
 Symmetry not used in FoFDir.
 MinBra= 0 MaxBra= 2 Meth= 1.
 IRaf=       0 NMat=   1 IRICut=       1 DoRegI=T DoRafI=F ISym2E= 0 JSym2E=0.
 Integral accuracy reduced to 1.0D-05 until final iterations.

 Cycle   1  Pass 0  IDiag  1:
 E= -2611.54995671290    
 DIIS: error= 3.21D-02 at cycle   1 NSaved=   1.
 NSaved= 1 IEnMin= 1 EnMin= -2611.54995671290     IErMin= 1 ErrMin= 3.21D-02
 ErrMax= 3.21D-02 EMaxC= 1.00D-01 BMatC= 7.88D-02 BMatP= 7.88D-02
 IDIUse=3 WtCom= 6.79D-01 WtEn= 3.21D-01
 Coeff-Com:  0.100D+01
 Coeff-En:   0.100D+01
 Coeff:      0.100D+01
 Gap=     0.325 Goal=   None    Shift=    0.000
 GapD=    0.325 DampG=1.000 DampE=0.500 DampFc=0.5000 IDamp=-1.
 Damping current iteration by 5.00D-01
 RMSDP=8.14D-03 MaxDP=1.45D-01              OVMax= 2.51D-01

 Cycle   2  Pass 0  IDiag  1:
 E= -2611.57545823584     Delta-E=       -0.025501522938 Rises=F Damp=T
 DIIS: error= 1.09D-02 at cycle   2 NSaved=   2.
 NSaved= 2 IEnMin= 2 EnMin= -2611.57545823584     IErMin= 2 ErrMin= 1.09D-02
 ErrMax= 1.09D-02 EMaxC= 1.00D-01 BMatC= 7.28D-03 BMatP= 7.88D-02
 IDIUse=3 WtCom= 8.91D-01 WtEn= 1.09D-01
 Coeff-Com:  0.100D+00 0.900D+00
 Coeff-En:   0.261D+00 0.739D+00
 Coeff:      0.118D+00 0.882D+00
 Gap=     0.259 Goal=   None    Shift=    0.000
 RMSDP=2.58D-03 MaxDP=4.19D-02 DE=-2.55D-02 OVMax= 1.72D-01

 Cycle   3  Pass 0  IDiag  1:
 E= -2611.61638201883     Delta-E=       -0.040923782990 Rises=F Damp=F
 DIIS: error= 6.04D-03 at cycle   3 NSaved=   3.
 NSaved= 3 IEnMin= 3 EnMin= -2611.61638201883     IErMin= 3 ErrMin= 6.04D-03
 ErrMax= 6.04D-03 EMaxC= 1.00D-01 BMatC= 1.45D-03 BMatP= 7.28D-03
 IDIUse=3 WtCom= 9.40D-01 WtEn= 6.04D-02
 Coeff-Com: -0.452D-01 0.264D+00 0.781D+00
 Coeff-En:   0.000D+00 0.000D+00 0.100D+01
 Coeff:     -0.424D-01 0.248D+00 0.794D+00
 Gap=     0.254 Goal=   None    Shift=    0.000
 RMSDP=1.16D-03 MaxDP=1.79D-02 DE=-4.09D-02 OVMax= 3.07D-02

 Cycle   4  Pass 0  IDiag  1:
 E= -2611.61807407093     Delta-E=       -0.001692052107 Rises=F Damp=F
 DIIS: error= 1.93D-03 at cycle   4 NSaved=   4.
 NSaved= 4 IEnMin= 4 EnMin= -2611.61807407093     IErMin= 4 ErrMin= 1.93D-03
 ErrMax= 1.93D-03 EMaxC= 1.00D-01 BMatC= 1.86D-04 BMatP= 1.45D-03
 IDIUse=3 WtCom= 9.81D-01 WtEn= 1.93D-02
 Coeff-Com: -0.100D-01 0.464D-01 0.321D+00 0.642D+00
 Coeff-En:   0.000D+00 0.000D+00 0.651D-01 0.935D+00
 Coeff:     -0.986D-02 0.456D-01 0.316D+00 0.648D+00
 Gap=     0.253 Goal=   None    Shift=    0.000
 RMSDP=3.22D-04 MaxDP=4.89D-03 DE=-1.69D-03 OVMax= 7.39D-03

 Cycle   5  Pass 0  IDiag  1:
 E= -2611.61831908888     Delta-E=       -0.000245017944 Rises=F Damp=F
 DIIS: error= 6.89D-05 at cycle   5 NSaved=   5.
 NSaved= 5 IEnMin= 5 EnMin= -2611.61831908888     IErMin= 5 ErrMin= 6.89D-05
 ErrMax= 6.89D-05 EMaxC= 1.00D-01 BMatC= 3.82D-07 BMatP= 1.86D-04
 IDIUse=1 WtCom= 1.00D+00 WtEn= 0.00D+00
 Coeff-Com:  0.462D-03-0.257D-02 0.200D-01 0.658D-01 0.916D+00
 Coeff:      0.462D-03-0.257D-02 0.200D-01 0.658D-01 0.916D+00
 Gap=     0.253 Goal=   None    Shift=    0.000
 RMSDP=1.09D-05 MaxDP=1.70D-04 DE=-2.45D-04 OVMax= 1.81D-04

 Cycle   6  Pass 0  IDiag  1:
 E= -2611.61831939857     Delta-E=       -0.000000309695 Rises=F Damp=F
 DIIS: error= 1.44D-05 at cycle   6 NSaved=   6.
 NSaved= 6 IEnMin= 6 EnMin= -2611.61831939857     IErMin= 6 ErrMin= 1.44D-05
 ErrMax= 1.44D-05 EMaxC= 1.00D-01 BMatC= 1.44D-08 BMatP= 3.82D-07
 IDIUse=1 WtCom= 1.00D+00 WtEn= 0.00D+00
 Coeff-Com:  0.374D-03-0.130D-02-0.273D-03 0.422D-02 0.219D+00 0.778D+00
 Coeff:      0.374D-03-0.130D-02-0.273D-03 0.422D-02 0.219D+00 0.778D+00
 Gap=     0.253 Goal=   None    Shift=    0.000
 RMSDP=3.85D-06 MaxDP=6.28D-05 DE=-3.10D-07 OVMax= 5.91D-05

 Initial convergence to 1.0D-05 achieved.  Increase integral accuracy.
 Cycle   7  Pass 1  IDiag  1:
 E= -2611.61941469931     Delta-E=       -0.001095300737 Rises=F Damp=F
 DIIS: error= 1.24D-04 at cycle   1 NSaved=   1.
 NSaved= 1 IEnMin= 1 EnMin= -2611.61941469931     IErMin= 1 ErrMin= 1.24D-04
 ErrMax= 1.24D-04 EMaxC= 1.00D-01 BMatC= 1.85D-07 BMatP= 1.85D-07
 IDIUse=3 WtCom= 9.99D-01 WtEn= 1.24D-03
 Coeff-Com:  0.100D+01
 Coeff-En:   0.100D+01
 Coeff:      0.100D+01
 Gap=     0.253 Goal=   None    Shift=    0.000
 RMSDP=3.85D-06 MaxDP=6.28D-05 DE=-1.10D-03 OVMax= 1.37D-04

 Cycle   8  Pass 1  IDiag  1:
 E= -2611.61941476893     Delta-E=       -0.000000069619 Rises=F Damp=F
 DIIS: error= 7.19D-06 at cycle   2 NSaved=   2.
 NSaved= 2 IEnMin= 2 EnMin= -2611.61941476893     IErMin= 2 ErrMin= 7.19D-06
 ErrMax= 7.19D-06 EMaxC= 1.00D-01 BMatC= 3.87D-09 BMatP= 1.85D-07
 IDIUse=1 WtCom= 1.00D+00 WtEn= 0.00D+00
 Coeff-Com:  0.404D-01 0.960D+00
 Coeff:      0.404D-01 0.960D+00
 Gap=     0.253 Goal=   None    Shift=    0.000
 RMSDP=2.93D-06 MaxDP=3.87D-05 DE=-6.96D-08 OVMax= 5.11D-05

 Cycle   9  Pass 1  IDiag  1:
 E= -2611.61941477075     Delta-E=       -0.000000001824 Rises=F Damp=F
 DIIS: error= 5.58D-06 at cycle   3 NSaved=   3.
 NSaved= 3 IEnMin= 3 EnMin= -2611.61941477075     IErMin= 3 ErrMin= 5.58D-06
 ErrMax= 5.58D-06 EMaxC= 1.00D-01 BMatC= 2.55D-09 BMatP= 3.87D-09
 IDIUse=1 WtCom= 1.00D+00 WtEn= 0.00D+00
 Coeff-Com: -0.880D-03 0.446D+00 0.555D+00
 Coeff:     -0.880D-03 0.446D+00 0.555D+00
 Gap=     0.253 Goal=   None    Shift=    0.000
 RMSDP=1.29D-06 MaxDP=2.06D-05 DE=-1.82D-09 OVMax= 3.03D-05

 Cycle  10  Pass 1  IDiag  1:
 E= -2611.61941477358     Delta-E=       -0.000000002830 Rises=F Damp=F
 DIIS: error= 1.69D-06 at cycle   4 NSaved=   4.
 NSaved= 4 IEnMin= 4 EnMin= -2611.61941477358     IErMin= 4 ErrMin= 1.69D-06
 ErrMax= 1.69D-06 EMaxC= 1.00D-01 BMatC= 1.82D-10 BMatP= 2.55D-09
 IDIUse=1 WtCom= 1.00D+00 WtEn= 0.00D+00
 Coeff-Com: -0.159D-02 0.227D+00 0.317D+00 0.457D+00
 Coeff:     -0.159D-02 0.227D+00 0.317D+00 0.457D+00
 Gap=     0.253 Goal=   None    Shift=    0.000
 RMSDP=2.23D-07 MaxDP=3.62D-06 DE=-2.83D-09 OVMax= 7.31D-06

 Cycle  11  Pass 1  IDiag  1:
 E= -2611.61941477379     Delta-E=       -0.000000000205 Rises=F Damp=F
 DIIS: error= 2.09D-07 at cycle   5 NSaved=   5.
 NSaved= 5 IEnMin= 5 EnMin= -2611.61941477379     IErMin= 5 ErrMin= 2.09D-07
 ErrMax= 2.09D-07 EMaxC= 1.00D-01 BMatC= 2.33D-12 BMatP= 1.82D-10
 IDIUse=1 WtCom= 1.00D+00 WtEn= 0.00D+00
 Coeff-Com: -0.225D-03 0.370D-02 0.106D-01 0.106D+00 0.880D+00
 Coeff:     -0.225D-03 0.370D-02 0.106D-01 0.106D+00 0.880D+00
 Gap=     0.253 Goal=   None    Shift=    0.000
 RMSDP=3.02D-08 MaxDP=3.93D-07 DE=-2.05D-10 OVMax= 5.98D-07

 Cycle  12  Pass 1  IDiag  1:
 E= -2611.61941477379     Delta-E=       -0.000000000001 Rises=F Damp=F
 DIIS: error= 2.26D-08 at cycle   6 NSaved=   6.
 NSaved= 6 IEnMin= 6 EnMin= -2611.61941477379     IErMin= 6 ErrMin= 2.26D-08
 ErrMax= 2.26D-08 EMaxC= 1.00D-01 BMatC= 6.13D-14 BMatP= 2.33D-12
 IDIUse=1 WtCom= 1.00D+00 WtEn= 0.00D+00
 Coeff-Com: -0.396D-04-0.443D-02-0.417D-02 0.211D-01 0.260D+00 0.727D+00
 Coeff:     -0.396D-04-0.443D-02-0.417D-02 0.211D-01 0.260D+00 0.727D+00
 Gap=     0.253 Goal=   None    Shift=    0.000
 RMSDP=5.47D-09 MaxDP=5.71D-08 DE=-1.36D-12 OVMax= 9.90D-08

 SCF Done:  E(RB+HF-LYP) =  -2611.61941477     A.U. after   12 cycles
             Convg  =    0.5468D-08             -V/T =  2.0062
             S**2   =   0.0000
 KE= 2.595506836611D+03 PE=-6.397383544958D+03 EE= 1.104678807835D+03
 Leave Link  502 at Fri Dec 14 16:26:21 2012, MaxMem=  346030080 cpu:       5.4
 (Enter /afs/physto.se/common/scratch/odelius/x86_64//g03root/g03/l601.exe)
 Copying SCF densities to generalized density rwf, ISCF=0 IROHF=0.

 **********************************************************************

            Population analysis using the SCF density.

 **********************************************************************

 Orbital symmetries:
       Occupied  (A') (A') (A') (A') (A") (A') (A') (A') (A') (A")
                 (A') (A') (A") (A") (A') (A') (A') (A") (A') (A')
                 (A') (A")
       Virtual   (A') (A') (A") (A') (A') (A') (A") (A') (A") (A')
                 (A") (A') (A') (A") (A') (A') (A") (A') (A') (A')
                 (A') (A") (A') (A") (A') (A") (A') (A") (A') (A')
                 (A') (A") (A') (A") (A') (A') (A') (A')
 The electronic state is 1-A'.
 Alpha  occ. eigenvalues -- -482.89554 -61.85811 -56.37906 -56.37520 -56.37520
 Alpha  occ. eigenvalues --  -10.24605  -8.56964  -6.52392  -6.51061  -6.51061
 Alpha  occ. eigenvalues --   -2.63938  -2.63574  -2.63574  -2.62512  -2.62512
 Alpha  occ. eigenvalues --   -0.78358  -0.67539  -0.44745  -0.44744  -0.37172
 Alpha  occ. eigenvalues --   -0.27207  -0.27207
 Alpha virt. eigenvalues --   -0.01912   0.10186   0.14714   0.14715   0.28665
 Alpha virt. eigenvalues --    0.42280   0.42283   0.45552   0.48635   0.48638
 Alpha virt. eigenvalues --    0.51336   0.51337   0.52987   0.65199   0.65214
 Alpha virt. eigenvalues --    0.74896   0.85075   0.85076   0.94035   1.22243
 Alpha virt. eigenvalues --    1.44775   1.44781   1.53939   1.99970   2.00062
 Alpha virt. eigenvalues --    2.02000   2.02013   2.34973   2.34978   2.54696
 Alpha virt. eigenvalues --    2.80290   2.80303   3.17111   3.39616   3.39633
 Alpha virt. eigenvalues --    4.34950   8.60781  72.57986
          Condensed to atoms (all electrons):
              1          2          3          4          5
     1  C    4.939244   0.384354   0.384372   0.384372   0.244765
     2  H    0.384354   0.542193  -0.028985  -0.028985  -0.032961
     3  H    0.384372  -0.028985   0.542197  -0.028959  -0.033023
     4  H    0.384372  -0.028985  -0.028959   0.542197  -0.033023
     5  Br   0.244765  -0.032961  -0.033023  -0.033023  35.010315
 Mulliken atomic charges:
              1
     1  C   -0.337107
     2  H    0.164383
     3  H    0.164398
     4  H    0.164398
     5  Br  -0.156074
 Sum of Mulliken charges=   0.00000
 Atomic charges with hydrogens summed into heavy atoms:
              1
     1  C    0.156074
     2  H    0.000000
     3  H    0.000000
     4  H    0.000000
     5  Br  -0.156074
 Sum of Mulliken charges=   0.00000
 Electronic spatial extent (au):  <R**2>=   183.9822
 Charge=     0.0000 electrons
 Dipole moment (field-independent basis, Debye):
    X=    -0.0002    Y=    -2.1136    Z=     0.0000  Tot=     2.1136
 Quadrupole moment (field-independent basis, Debye-Ang):
   XX=   -25.5274   YY=   -21.1218   ZZ=   -25.5267
   XY=    -0.0008   XZ=     0.0000   YZ=     0.0000
 Traceless Quadrupole moment (field-independent basis, Debye-Ang):
   XX=    -1.4687   YY=     2.9368   ZZ=    -1.4681
   XY=    -0.0008   XZ=     0.0000   YZ=     0.0000
 Octapole moment (field-independent basis, Debye-Ang**2):
  XXX=     0.7979  YYY=     9.9501  ZZZ=     0.0000  XYY=     0.0027
  XXY=     2.4544  XXZ=     0.0000  XZZ=    -0.7981  YZZ=     2.4543
  YYZ=     0.0000  XYZ=     0.0000
 Hexadecapole moment (field-independent basis, Debye-Ang**3):
 XXXX=   -34.4284 YYYY=  -161.0444 ZZZZ=   -34.4282 XXXY=    -1.5361
 XXXZ=     0.0000 YYYX=    -0.0098 YYYZ=     0.0000 ZZZX=     0.0000
 ZZZY=     0.0000 XXYY=   -31.9965 XXZZ=   -11.4756 YYZZ=   -31.9988
 XXYZ=     0.0000 YYXZ=     0.0000 ZZXY=     1.5361
 N-N= 8.557848573871D+01 E-N=-6.397383548671D+03  KE= 2.595506836611D+03
 Symmetry A'   KE= 2.216412197149D+03
 Symmetry A"   KE= 3.790946394615D+02
 No NMR shielding tensors so no spin-rotation constants.
 Leave Link  601 at Fri Dec 14 16:26:23 2012, MaxMem=  346030080 cpu:       0.5
 (Enter /afs/physto.se/common/scratch/odelius/x86_64//g03root/g03/l701.exe)
 Compute integral first derivatives.
 ... and contract with generalized density number  0.
 Leave Link  701 at Fri Dec 14 16:26:24 2012, MaxMem=  346030080 cpu:       0.5
 (Enter /afs/physto.se/common/scratch/odelius/x86_64//g03root/g03/l702.exe)
 L702 exits ... SP integral derivatives will be done elsewhere.
 Leave Link  702 at Fri Dec 14 16:26:26 2012, MaxMem=  346030080 cpu:       0.1
 (Enter /afs/physto.se/common/scratch/odelius/x86_64//g03root/g03/l703.exe)
 Compute integral first derivatives, UseDBF=F.
 Integral derivatives from FoFDir, PRISM(SPDF).
 Petite list used in FoFDir.
 MinBra= 0 MaxBra= 2 Meth= 1.
 IRaf=       0 NMat=   1 IRICut=       1 DoRegI=T DoRafI=F ISym2E= 1 JSym2E=1.
 Leave Link  703 at Fri Dec 14 16:26:29 2012, MaxMem=  346030080 cpu:       5.2
 (Enter /afs/physto.se/common/scratch/odelius/x86_64//g03root/g03/l716.exe)
 Dipole        =-7.48965390D-05-8.31573856D-01-2.69717374D-16
 ***** Axes restored to original set *****
 -------------------------------------------------------------------
 Center     Atomic                   Forces (Hartrees/Bohr)
 Number     Number              X              Y              Z
 -------------------------------------------------------------------
    1          6           0.000503466   -0.020657572    0.000000000
    2          1          -0.003156787   -0.000172378    0.000000000
    3          1           0.001561909   -0.000052924    0.002690115
    4          1           0.001561909   -0.000052924   -0.002690115
    5         35          -0.000470497    0.020935798    0.000000000
 -------------------------------------------------------------------
 Cartesian Forces:  Max     0.020935798 RMS     0.007723863
 Leave Link  716 at Fri Dec 14 16:26:30 2012, MaxMem=  346030080 cpu:       0.0
 (Enter /afs/physto.se/common/scratch/odelius/x86_64//g03root/g03/l103.exe)

 GradGradGradGradGradGradGradGradGradGradGradGradGradGradGradGradGradGrad
 Berny optimization.
 Internal  Forces:  Max     0.020940983 RMS     0.006868524
 Search for a local minimum.
 Step number   1 out of a maximum of  20
 All quantities printed in internal units (Hartrees-Bohrs-Radians)
 Second derivative matrix not updated -- first step.
 The second derivative matrix:
                          R1        R2        R3        R4        A1
           R1           0.35753
           R2           0.00000   0.35741
           R3           0.00000   0.00000   0.35741
           R4           0.00000   0.00000   0.00000   0.12627
           A1           0.00000   0.00000   0.00000   0.00000   0.16000
           A2           0.00000   0.00000   0.00000   0.00000   0.00000
           A3           0.00000   0.00000   0.00000   0.00000   0.00000
           A4           0.00000   0.00000   0.00000   0.00000   0.00000
           A5           0.00000   0.00000   0.00000   0.00000   0.00000
           A6           0.00000   0.00000   0.00000   0.00000   0.00000
                          A2        A3        A4        A5        A6
           A2           0.16000
           A3           0.00000   0.16000
           A4           0.00000   0.00000   0.16000
           A5           0.00000   0.00000   0.00000   0.16000
           A6           0.00000   0.00000   0.00000   0.00000   0.16000
     Eigenvalues ---    0.12627   0.16000   0.16000   0.16000   0.16000
     Eigenvalues ---    0.16000   0.35741   0.35741   0.357531000.00000
 RFO step:  Lambda=-3.49423605D-03.
 Linear search not attempted -- first point.
 Iteration  1 RMS(Cart)=  0.04854067 RMS(Int)=  0.00005385
 Iteration  2 RMS(Cart)=  0.00004363 RMS(Int)=  0.00002346
 Iteration  3 RMS(Cart)=  0.00000000 RMS(Int)=  0.00002346
 Variable       Old X    -DE/DX   Delta X   Delta X   Delta X     New X
                                 (Linear)    (Quad)   (Total)
    R1        2.04469   0.00300   0.00000   0.00831   0.00831   2.05300
    R2        2.04488   0.00296   0.00000   0.00819   0.00819   2.05307
    R3        2.04488   0.00296   0.00000   0.00819   0.00819   2.05307
    R4        3.86721  -0.02094   0.00000  -0.16138  -0.16138   3.70583
    A1        1.95795   0.00100   0.00000   0.00609   0.00606   1.96401
    A2        1.95795   0.00100   0.00000   0.00609   0.00606   1.96401
    A3        1.86104  -0.00122   0.00000  -0.00746  -0.00748   1.85356
    A4        1.95812   0.00100   0.00000   0.00610   0.00607   1.96419
    A5        1.86020  -0.00108   0.00000  -0.00658  -0.00661   1.85359
    A6        1.86020  -0.00108   0.00000  -0.00658  -0.00661   1.85359
         Item               Value     Threshold  Converged?
 Maximum Force            0.020941     0.000450     NO 
 RMS     Force            0.006869     0.000300     NO 
 Maximum Displacement     0.135813     0.001800     NO 
 RMS     Displacement     0.048568     0.001200     NO 
 Predicted change in Energy=-1.793418D-03
 GradGradGradGradGradGradGradGradGradGradGradGradGradGradGradGradGradGrad

 Leave Link  103 at Fri Dec 14 16:26:32 2012, MaxMem=  346030080 cpu:       0.1
 (Enter /afs/physto.se/common/scratch/odelius/x86_64//g03root/g03/l202.exe)
                          Input orientation:                          
 ---------------------------------------------------------------------
 Center     Atomic     Atomic              Coordinates (Angstroms)
 Number     Number      Type              X           Y           Z
 ---------------------------------------------------------------------
    1          6             0        0.000429    0.305721    0.000000
    2          1             0       -1.048443    0.588793    0.000000
    3          1             0        0.516099    0.618819    0.903550
    4          1             0        0.516099    0.618819   -0.903550
    5         35             0        0.038005   -1.654958    0.000000
 ---------------------------------------------------------------------
                    Distance matrix (angstroms):
                    1          2          3          4          5
     1  C    0.000000
     2  H    1.086398   0.000000
     3  H    1.086439   1.806957   0.000000
     4  H    1.086439   1.806957   1.807100   0.000000
     5  Br   1.961039   2.492947   2.492997   2.492997   0.000000
 Stoichiometry    CH3Br
 Framework group  CS[SG(CHBr),X(H2)]
 Deg. of freedom     6
 Full point group                 CS      NOp   2
 Largest Abelian subgroup         CS      NOp   2
 Largest concise Abelian subgroup CS      NOp   2
                         Standard orientation:                         
 ---------------------------------------------------------------------
 Center     Atomic     Atomic              Coordinates (Angstroms)
 Number     Number      Type              X           Y           Z
 ---------------------------------------------------------------------
    1          6             0        0.000002    1.539248    0.000000
    2          1             0       -1.043253    1.842366    0.000000
    3          1             0        0.521577    1.842407    0.903550
    4          1             0        0.521577    1.842407   -0.903550
    5         35             0        0.000002   -0.421791    0.000000
 ---------------------------------------------------------------------
 Rotational constants (GHZ):    153.5724433      9.4516735      9.4516122
 Leave Link  202 at Fri Dec 14 16:26:33 2012, MaxMem=  346030080 cpu:       0.1
 (Enter /afs/physto.se/common/scratch/odelius/x86_64//g03root/g03/l301.exe)
 Standard basis: 6-31G(d,p) (6D, 7F)
 There are    42 symmetry adapted basis functions of A'  symmetry.
 There are    18 symmetry adapted basis functions of A"  symmetry.
 Integral buffers will be    262144 words long.
 Raffenetti 2 integral format.
 Two-electron integral symmetry is turned on.
    60 basis functions,   132 primitive gaussians,    60 cartesian basis functions
    22 alpha electrons       22 beta electrons
       nuclear repulsion energy        88.6015518359 Hartrees.
 IExCor= 402 DFT=T Ex=B+HF Corr=LYP ExCW=0 ScaHFX=  0.200000
 ScaDFX=  0.800000  0.720000  1.000000  0.810000
 IRadAn=      0 IRanWt=     -1 IRanGd=            0 ICorTp=0
 NAtoms=    5 NActive=    5 NUniq=    4 SFac= 1.75D+00 NAtFMM=   60 Big=F
 Leave Link  301 at Fri Dec 14 16:26:35 2012, MaxMem=  346030080 cpu:       0.0
 (Enter /afs/physto.se/common/scratch/odelius/x86_64//g03root/g03/l302.exe)
 NPDir=0 NMtPBC=     1 NCelOv=     1 NCel=       1 NClECP=     1 NCelD=      1
         NCelK=      1 NCelE2=     1 NClLst=     1 CellRange=     0.0.
 One-electron integrals computed using PRISM.
 One-electron integral symmetry used in STVInt
 NBasis=    60 RedAO= T  NBF=    42    18
 NBsUse=    60 1.00D-06 NBFU=    42    18
 Precomputing XC quadrature grid using
 IXCGrd= 2 IRadAn=           0 IRanWt=          -1 IRanGd=           0.
 NRdTot=     304 NPtTot=       41994 NUsed=       43373 NTot=       43389
 NSgBfM=    60    60    60    60.
 Leave Link  302 at Fri Dec 14 16:26:37 2012, MaxMem=  346030080 cpu:       1.4
 (Enter /afs/physto.se/common/scratch/odelius/x86_64//g03root/g03/l303.exe)
 DipDrv:  MaxL=1.
 Leave Link  303 at Fri Dec 14 16:26:58 2012, MaxMem=  346030080 cpu:       0.0
 (Enter /afs/physto.se/common/scratch/odelius/x86_64//g03root/g03/l401.exe)
 Initial guess read from the read-write file:
 Guess basis will be translated and rotated to current coordinates.
 Initial guess orbital symmetries:
       Occupied  (A') (A') (A') (A') (A") (A') (A') (A') (A') (A")
                 (A') (A') (A") (A") (A') (A') (A') (A") (A') (A')
                 (A') (A")
       Virtual   (A') (A') (A") (A') (A') (A') (A") (A') (A") (A')
                 (A") (A') (A') (A") (A') (A') (A") (A') (A') (A')
                 (A') (A") (A') (A") (A') (A") (A') (A") (A') (A')
                 (A') (A") (A') (A") (A') (A') (A') (A')
 The electronic state of the initial guess is 1-A'.
 Generating alternative initial guess.
 Harris functional with IExCor=  402 diagonalized for initial guess.
 ExpMin= 1.43D-01 ExpMax= 5.74D+05 ExpMxC= 5.74D+03 IAcc=2 IRadAn=         4 AccDes= 0.00D+00
 HarFok:  IExCor= 402 AccDes= 0.00D+00 IRadAn=         4 IDoV=1
 ScaDFX=  1.000000  1.000000  1.000000  1.000000
 Harris En= -2611.68843036876    
 Leave Link  401 at Fri Dec 14 16:26:59 2012, MaxMem=  346030080 cpu:       0.4
 (Enter /afs/physto.se/common/scratch/odelius/x86_64//g03root/g03/l502.exe)
 Closed shell SCF:
 Requested convergence on RMS density matrix=1.00D-08 within 128 cycles.
 Requested convergence on MAX density matrix=1.00D-06.
 Requested convergence on             energy=1.00D-06.
 No special actions if energy rises.
 Using DIIS extrapolation, IDIIS=  1040.
 Integral symmetry usage will be decided dynamically.
        43372 words used for storage of precomputed grid.
 Keep R1 integrals in memory in canonical form, NReq=     2289884.
 IEnd=     72875 IEndB=     72875 NGot= 346030080 MDV= 344302127
 LenX= 344302127
 Symmetry not used in FoFDir.
 MinBra= 0 MaxBra= 2 Meth= 1.
 IRaf=       0 NMat=   1 IRICut=       1 DoRegI=T DoRafI=F ISym2E= 0 JSym2E=0.
 Integral accuracy reduced to 1.0D-05 until final iterations.

 Cycle   1  Pass 0  IDiag  1:
 E= -2609.89763634379    
 DIIS: error= 9.16D-02 at cycle   1 NSaved=   1.
 NSaved= 1 IEnMin= 1 EnMin= -2609.89763634379     IErMin= 1 ErrMin= 9.16D-02
 ErrMax= 9.16D-02 EMaxC= 1.00D-01 BMatC= 6.63D-01 BMatP= 6.63D-01
 IDIUse=3 WtCom= 8.39D-02 WtEn= 9.16D-01
 Coeff-Com:  0.100D+01
 Coeff-En:   0.100D+01
 Coeff:      0.100D+01
 Recover alternate guess density for next cycle.
 RMSDP=3.36D-02 MaxDP=6.78D-01              OVMax= 0.00D+00

 Cycle   2  Pass 0  IDiag  1:
 E= -2611.55137439243     Delta-E=       -1.653738048641 Rises=F Damp=F
 DIIS: error= 3.21D-02 at cycle   2 NSaved=   2.
 NSaved= 2 IEnMin= 2 EnMin= -2611.55137439243     IErMin= 2 ErrMin= 3.21D-02
 ErrMax= 3.21D-02 EMaxC= 1.00D-01 BMatC= 7.98D-02 BMatP= 6.63D-01
 IDIUse=3 WtCom= 6.79D-01 WtEn= 3.21D-01
 Coeff-Com:  0.886D-01 0.911D+00
 Coeff-En:   0.000D+00 0.100D+01
 Coeff:      0.601D-01 0.940D+00
 Gap=     1.089 Goal=   None    Shift=    0.000
 RMSDP=7.96D-03 MaxDP=1.41D-01 DE=-1.65D+00 OVMax= 6.68D-01

 Cycle   3  Pass 0  IDiag  1:
 E= -2611.50734363421     Delta-E=        0.044030758222 Rises=F Damp=F
 DIIS: error= 4.00D-02 at cycle   3 NSaved=   3.
 NSaved= 3 IEnMin= 2 EnMin= -2611.55137439243     IErMin= 2 ErrMin= 3.21D-02
 ErrMax= 4.00D-02 EMaxC= 1.00D-01 BMatC= 9.98D-02 BMatP= 7.98D-02
 IDIUse=2 WtCom= 0.00D+00 WtEn= 1.00D+00
 Coeff-En:   0.000D+00 0.611D+00 0.389D+00
 Coeff:      0.000D+00 0.611D+00 0.389D+00
 Gap=     0.288 Goal=   None    Shift=    0.000
 RMSDP=4.34D-03 MaxDP=6.02D-02 DE= 4.40D-02 OVMax= 1.23D-01

 Cycle   4  Pass 0  IDiag  1:
 E= -2611.61875739792     Delta-E=       -0.111413763707 Rises=F Damp=F
 DIIS: error= 4.32D-03 at cycle   4 NSaved=   4.
 NSaved= 4 IEnMin= 4 EnMin= -2611.61875739792     IErMin= 4 ErrMin= 4.32D-03
 ErrMax= 4.32D-03 EMaxC= 1.00D-01 BMatC= 1.15D-03 BMatP= 7.98D-02
 IDIUse=3 WtCom= 9.57D-01 WtEn= 4.32D-02
 Coeff-Com:  0.143D-02 0.825D-01-0.166D-01 0.933D+00
 Coeff-En:   0.000D+00 0.000D+00 0.000D+00 0.100D+01
 Coeff:      0.137D-02 0.789D-01-0.159D-01 0.936D+00
 Gap=     0.276 Goal=   None    Shift=    0.000
 RMSDP=6.61D-04 MaxDP=9.23D-03 DE=-1.11D-01 OVMax= 9.96D-03

 Cycle   5  Pass 0  IDiag  1:
 E= -2611.61978907740     Delta-E=       -0.001031679483 Rises=F Damp=F
 DIIS: error= 1.16D-03 at cycle   5 NSaved=   5.
 NSaved= 5 IEnMin= 5 EnMin= -2611.61978907740     IErMin= 5 ErrMin= 1.16D-03
 ErrMax= 1.16D-03 EMaxC= 1.00D-01 BMatC= 8.99D-05 BMatP= 1.15D-03
 IDIUse=3 WtCom= 9.88D-01 WtEn= 1.16D-02
 Coeff-Com: -0.471D-04 0.138D-01-0.245D-01 0.353D+00 0.658D+00
 Coeff-En:   0.000D+00 0.000D+00 0.000D+00 0.000D+00 0.100D+01
 Coeff:     -0.466D-04 0.137D-01-0.242D-01 0.349D+00 0.662D+00
 Gap=     0.276 Goal=   None    Shift=    0.000
 RMSDP=2.12D-04 MaxDP=3.10D-03 DE=-1.03D-03 OVMax= 3.74D-03

 Cycle   6  Pass 0  IDiag  1:
 E= -2611.61990606805     Delta-E=       -0.000116990648 Rises=F Damp=F
 DIIS: error= 6.60D-05 at cycle   6 NSaved=   6.
 NSaved= 6 IEnMin= 6 EnMin= -2611.61990606805     IErMin= 6 ErrMin= 6.60D-05
 ErrMax= 6.60D-05 EMaxC= 1.00D-01 BMatC= 3.11D-07 BMatP= 8.99D-05
 IDIUse=1 WtCom= 1.00D+00 WtEn= 0.00D+00
 Coeff-Com:  0.261D-05 0.252D-03-0.288D-02 0.158D-01 0.553D-01 0.931D+00
 Coeff:      0.261D-05 0.252D-03-0.288D-02 0.158D-01 0.553D-01 0.931D+00
 Gap=     0.276 Goal=   None    Shift=    0.000
 RMSDP=9.35D-06 MaxDP=1.24D-04 DE=-1.17D-04 OVMax= 1.36D-04

 Initial convergence to 1.0D-05 achieved.  Increase integral accuracy.
 Cycle   7  Pass 1  IDiag  1:
 E= -2611.62085070661     Delta-E=       -0.000944638558 Rises=F Damp=F
 DIIS: error= 1.26D-04 at cycle   1 NSaved=   1.
 NSaved= 1 IEnMin= 1 EnMin= -2611.62085070661     IErMin= 1 ErrMin= 1.26D-04
 ErrMax= 1.26D-04 EMaxC= 1.00D-01 BMatC= 1.76D-07 BMatP= 1.76D-07
 IDIUse=3 WtCom= 9.99D-01 WtEn= 1.26D-03
 Coeff-Com:  0.100D+01
 Coeff-En:   0.100D+01
 Coeff:      0.100D+01
 Gap=     0.276 Goal=   None    Shift=    0.000
 RMSDP=9.35D-06 MaxDP=1.24D-04 DE=-9.45D-04 OVMax= 1.07D-04

 Cycle   8  Pass 1  IDiag  1:
 E= -2611.62085076078     Delta-E=       -0.000000054176 Rises=F Damp=F
 DIIS: error= 7.59D-06 at cycle   2 NSaved=   2.
 NSaved= 2 IEnMin= 2 EnMin= -2611.62085076078     IErMin= 2 ErrMin= 7.59D-06
 ErrMax= 7.59D-06 EMaxC= 1.00D-01 BMatC= 6.10D-09 BMatP= 1.76D-07
 IDIUse=1 WtCom= 1.00D+00 WtEn= 0.00D+00
 Coeff-Com:  0.665D-01 0.933D+00
 Coeff:      0.665D-01 0.933D+00
 Gap=     0.276 Goal=   None    Shift=    0.000
 RMSDP=2.96D-06 MaxDP=4.29D-05 DE=-5.42D-08 OVMax= 3.43D-05

 Cycle   9  Pass 1  IDiag  1:
 E= -2611.62085076214     Delta-E=       -0.000000001357 Rises=F Damp=F
 DIIS: error= 8.29D-06 at cycle   3 NSaved=   3.
 NSaved= 3 IEnMin= 3 EnMin= -2611.62085076214     IErMin= 2 ErrMin= 7.59D-06
 ErrMax= 8.29D-06 EMaxC= 1.00D-01 BMatC= 4.72D-09 BMatP= 6.10D-09
 IDIUse=1 WtCom= 1.00D+00 WtEn= 0.00D+00
 Coeff-Com:  0.330D-02 0.467D+00 0.530D+00
 Coeff:      0.330D-02 0.467D+00 0.530D+00
 Gap=     0.276 Goal=   None    Shift=    0.000
 RMSDP=1.19D-06 MaxDP=1.68D-05 DE=-1.36D-09 OVMax= 2.71D-05

 Cycle  10  Pass 1  IDiag  1:
 E= -2611.62085076675     Delta-E=       -0.000000004611 Rises=F Damp=F
 DIIS: error= 1.99D-06 at cycle   4 NSaved=   4.
 NSaved= 4 IEnMin= 4 EnMin= -2611.62085076675     IErMin= 4 ErrMin= 1.99D-06
 ErrMax= 1.99D-06 EMaxC= 1.00D-01 BMatC= 2.62D-10 BMatP= 4.72D-09
 IDIUse=1 WtCom= 1.00D+00 WtEn= 0.00D+00
 Coeff-Com: -0.104D-02 0.225D+00 0.295D+00 0.482D+00
 Coeff:     -0.104D-02 0.225D+00 0.295D+00 0.482D+00
 Gap=     0.276 Goal=   None    Shift=    0.000
 RMSDP=3.46D-07 MaxDP=5.82D-06 DE=-4.61D-09 OVMax= 8.75D-06

 Cycle  11  Pass 1  IDiag  1:
 E= -2611.62085076704     Delta-E=       -0.000000000288 Rises=F Damp=F
 DIIS: error= 1.23D-07 at cycle   5 NSaved=   5.
 NSaved= 5 IEnMin= 5 EnMin= -2611.62085076704     IErMin= 5 ErrMin= 1.23D-07
 ErrMax= 1.23D-07 EMaxC= 1.00D-01 BMatC= 1.26D-12 BMatP= 2.62D-10
 IDIUse=1 WtCom= 1.00D+00 WtEn= 0.00D+00
 Coeff-Com: -0.276D-03 0.141D-01 0.218D-01 0.836D-01 0.881D+00
 Coeff:     -0.276D-03 0.141D-01 0.218D-01 0.836D-01 0.881D+00
 Gap=     0.276 Goal=   None    Shift=    0.000
 RMSDP=2.94D-08 MaxDP=4.25D-07 DE=-2.88D-10 OVMax= 6.74D-07

 Cycle  12  Pass 1  IDiag  1:
 E= -2611.62085076704     Delta-E=        0.000000000000 Rises=F Damp=F
 DIIS: error= 3.25D-08 at cycle   6 NSaved=   6.
 NSaved= 6 IEnMin= 5 EnMin= -2611.62085076704     IErMin= 6 ErrMin= 3.25D-08
 ErrMax= 3.25D-08 EMaxC= 1.00D-01 BMatC= 4.99D-14 BMatP= 1.26D-12
 IDIUse=1 WtCom= 1.00D+00 WtEn= 0.00D+00
 Coeff-Com: -0.344D-04-0.356D-02-0.358D-02 0.481D-02 0.219D+00 0.783D+00
 Coeff:     -0.344D-04-0.356D-02-0.358D-02 0.481D-02 0.219D+00 0.783D+00
 Gap=     0.276 Goal=   None    Shift=    0.000
 RMSDP=4.30D-09 MaxDP=4.37D-08 DE= 0.00D+00 OVMax= 7.38D-08

 SCF Done:  E(RB+HF-LYP) =  -2611.62085077     A.U. after   12 cycles
             Convg  =    0.4298D-08             -V/T =  2.0062
             S**2   =   0.0000
 KE= 2.595583003569D+03 PE=-6.403474834805D+03 EE= 1.107669428633D+03
 Leave Link  502 at Fri Dec 14 16:27:25 2012, MaxMem=  346030080 cpu:      74.9
 (Enter /afs/physto.se/common/scratch/odelius/x86_64//g03root/g03/l701.exe)
 Compute integral first derivatives.
 ... and contract with generalized density number  0.
 Leave Link  701 at Fri Dec 14 16:27:27 2012, MaxMem=  346030080 cpu:       0.5
 (Enter /afs/physto.se/common/scratch/odelius/x86_64//g03root/g03/l702.exe)
 L702 exits ... SP integral derivatives will be done elsewhere.
 Leave Link  702 at Fri Dec 14 16:27:28 2012, MaxMem=  346030080 cpu:       0.0
 (Enter /afs/physto.se/common/scratch/odelius/x86_64//g03root/g03/l703.exe)
 Compute integral first derivatives, UseDBF=F.
 Integral derivatives from FoFDir, PRISM(SPDF).
 Petite list used in FoFDir.
 MinBra= 0 MaxBra= 2 Meth= 1.
 IRaf=       0 NMat=   1 IRICut=       1 DoRegI=T DoRafI=F ISym2E= 1 JSym2E=1.
 Leave Link  703 at Fri Dec 14 16:27:31 2012, MaxMem=  346030080 cpu:       6.0
 (Enter /afs/physto.se/common/scratch/odelius/x86_64//g03root/g03/l716.exe)
 Dipole        =-4.96731243D-05 7.70860231D-01 1.51914542D-17
 ***** Axes restored to original set *****
 -------------------------------------------------------------------
 Center     Atomic                   Forces (Hartrees/Bohr)
 Number     Number              X              Y              Z
 -------------------------------------------------------------------
    1          6           0.000115895   -0.005317697    0.000000000
    2          1           0.000716717    0.003261930    0.000000000
    3          1          -0.000447277    0.003227860   -0.000677544
    4          1          -0.000447277    0.003227860    0.000677544
    5         35           0.000061942   -0.004399953    0.000000000
 -------------------------------------------------------------------
 Cartesian Forces:  Max     0.005317697 RMS     0.002323288
 Leave Link  716 at Fri Dec 14 16:27:57 2012, MaxMem=  346030080 cpu:       0.1
 (Enter /afs/physto.se/common/scratch/odelius/x86_64//g03root/g03/l103.exe)

 GradGradGradGradGradGradGradGradGradGradGradGradGradGradGradGradGradGrad
 Berny optimization.
 Internal  Forces:  Max     0.004400332 RMS     0.003148873
 Search for a local minimum.
 Step number   2 out of a maximum of  20
 All quantities printed in internal units (Hartrees-Bohrs-Radians)
 Update second derivatives using D2CorX and points  1  2
 Trust test= 8.01D-01 RLast= 1.63D-01 DXMaxT set to 4.24D-01
 The second derivative matrix:
                          R1        R2        R3        R4        A1
           R1           0.35680
           R2          -0.00072   0.35670
           R3          -0.00072  -0.00071   0.35670
           R4           0.00122   0.00118   0.00118   0.15208
           A1           0.00202   0.00199   0.00199  -0.01975   0.16414
           A2           0.00202   0.00199   0.00199  -0.01975   0.00414
           A3          -0.00229  -0.00226  -0.00226   0.02258  -0.00480
           A4           0.00202   0.00199   0.00199  -0.01976   0.00414
           A5          -0.00233  -0.00230  -0.00230   0.02266  -0.00471
           A6          -0.00233  -0.00230  -0.00230   0.02266  -0.00471
                          A2        A3        A4        A5        A6
           A2           0.16414
           A3          -0.00480   0.16556
           A4           0.00414  -0.00480   0.16414
           A5          -0.00471   0.00546  -0.00471   0.16536
           A6          -0.00471   0.00546  -0.00471   0.00536   0.16536
     Eigenvalues ---    0.11503   0.16000   0.16000   0.16000   0.16000
     Eigenvalues ---    0.22526   0.35580   0.35741   0.357491000.00000
 RFO step:  Lambda=-3.01510861D-04.
 Quartic linear search produced a step of -0.17266.
 Iteration  1 RMS(Cart)=  0.01592910 RMS(Int)=  0.00026696
 Iteration  2 RMS(Cart)=  0.00019264 RMS(Int)=  0.00017594
 Iteration  3 RMS(Cart)=  0.00000000 RMS(Int)=  0.00017594
 Variable       Old X    -DE/DX   Delta X   Delta X   Delta X     New X
                                 (Linear)    (Quad)   (Total)
    R1        2.05300   0.00016  -0.00143   0.00260   0.00116   2.05416
    R2        2.05307   0.00015  -0.00141   0.00255   0.00114   2.05421
    R3        2.05307   0.00015  -0.00141   0.00255   0.00114   2.05421
    R4        3.70583   0.00440   0.02786  -0.01803   0.00983   3.71566
    A1        1.96401  -0.00338  -0.00105  -0.01576  -0.01704   1.94697
    A2        1.96401  -0.00338  -0.00105  -0.01576  -0.01704   1.94697
    A3        1.85356   0.00388   0.00129   0.01789   0.01897   1.87253
    A4        1.96419  -0.00338  -0.00105  -0.01576  -0.01704   1.94715
    A5        1.85359   0.00389   0.00114   0.01821   0.01914   1.87273
    A6        1.85359   0.00389   0.00114   0.01821   0.01914   1.87273
         Item               Value     Threshold  Converged?
 Maximum Force            0.004400     0.000450     NO 
 RMS     Force            0.003149     0.000300     NO 
 Maximum Displacement     0.030573     0.001800     NO 
 RMS     Displacement     0.015984     0.001200     NO 
 Predicted change in Energy=-2.241871D-04
 GradGradGradGradGradGradGradGradGradGradGradGradGradGradGradGradGradGrad

 Leave Link  103 at Fri Dec 14 16:27:59 2012, MaxMem=  346030080 cpu:       1.9
 (Enter /afs/physto.se/common/scratch/odelius/x86_64//g03root/g03/l202.exe)
                          Input orientation:                          
 ---------------------------------------------------------------------
 Center     Atomic     Atomic              Coordinates (Angstroms)
 Number     Number      Type              X           Y           Z
 ---------------------------------------------------------------------
    1          6             0        0.000673    0.294747    0.000000
    2          1             0       -1.043220    0.597878    0.000000
    3          1             0        0.513237    0.627853    0.898874
    4          1             0        0.513237    0.627853   -0.898874
    5         35             0        0.038263   -1.671136    0.000000
 ---------------------------------------------------------------------
                    Distance matrix (angstroms):
                    1          2          3          4          5
     1  C    0.000000
     2  H    1.087014   0.000000
     3  H    1.087040   1.797618   0.000000
     4  H    1.087040   1.797618   1.797749   0.000000
     5  Br   1.966242   2.513569   2.513748   2.513748   0.000000
 Stoichiometry    CH3Br
 Framework group  CS[SG(CHBr),X(H2)]
 Deg. of freedom     6
 Full point group                 CS      NOp   2
 Largest Abelian subgroup         CS      NOp   2
 Largest concise Abelian subgroup CS      NOp   2
                         Standard orientation:                         
 ---------------------------------------------------------------------
 Center     Atomic     Atomic              Coordinates (Angstroms)
 Number     Number      Type              X           Y           Z
 ---------------------------------------------------------------------
    1          6             0        0.000005    1.542022    0.000000
    2          1             0       -1.037902    1.865054    0.000000
    3          1             0        0.518844    1.865268    0.898874
    4          1             0        0.518844    1.865268   -0.898874
    5         35             0        0.000005   -0.424221    0.000000
 ---------------------------------------------------------------------
 Rotational constants (GHZ):    155.1729587      9.3665822      9.3665274
 Leave Link  202 at Fri Dec 14 16:28:01 2012, MaxMem=  346030080 cpu:       0.1
 (Enter /afs/physto.se/common/scratch/odelius/x86_64//g03root/g03/l301.exe)
 Standard basis: 6-31G(d,p) (6D, 7F)
 There are    42 symmetry adapted basis functions of A'  symmetry.
 There are    18 symmetry adapted basis functions of A"  symmetry.
 Integral buffers will be    262144 words long.
 Raffenetti 2 integral format.
 Two-electron integral symmetry is turned on.
    60 basis functions,   132 primitive gaussians,    60 cartesian basis functions
    22 alpha electrons       22 beta electrons
       nuclear repulsion energy        88.2676491493 Hartrees.
 IExCor= 402 DFT=T Ex=B+HF Corr=LYP ExCW=0 ScaHFX=  0.200000
 ScaDFX=  0.800000  0.720000  1.000000  0.810000
 IRadAn=      0 IRanWt=     -1 IRanGd=            0 ICorTp=0
 NAtoms=    5 NActive=    5 NUniq=    4 SFac= 1.75D+00 NAtFMM=   60 Big=F
 Leave Link  301 at Fri Dec 14 16:28:03 2012, MaxMem=  346030080 cpu:       0.0
 (Enter /afs/physto.se/common/scratch/odelius/x86_64//g03root/g03/l302.exe)
 NPDir=0 NMtPBC=     1 NCelOv=     1 NCel=       1 NClECP=     1 NCelD=      1
         NCelK=      1 NCelE2=     1 NClLst=     1 CellRange=     0.0.
 One-electron integrals computed using PRISM.
 One-electron integral symmetry used in STVInt
 NBasis=    60 RedAO= T  NBF=    42    18
 NBsUse=    60 1.00D-06 NBFU=    42    18
 Precomputing XC quadrature grid using
 IXCGrd= 2 IRadAn=           0 IRanWt=          -1 IRanGd=           0.
 NRdTot=     304 NPtTot=       42140 NUsed=       43519 NTot=       43535
 NSgBfM=    60    60    60    60.
 Leave Link  302 at Fri Dec 14 16:28:04 2012, MaxMem=  346030080 cpu:       1.0
 (Enter /afs/physto.se/common/scratch/odelius/x86_64//g03root/g03/l303.exe)
 DipDrv:  MaxL=1.
 Leave Link  303 at Fri Dec 14 16:28:06 2012, MaxMem=  346030080 cpu:       0.0
 (Enter /afs/physto.se/common/scratch/odelius/x86_64//g03root/g03/l401.exe)
 Initial guess read from the read-write file:
 Guess basis will be translated and rotated to current coordinates.
 Initial guess orbital symmetries:
       Occupied  (A') (A') (A') (A') (A") (A') (A') (A') (A') (A")
                 (A') (A") (A') (A") (A') (A') (A') (A") (A') (A')
                 (A") (A')
       Virtual   (A') (A') (A') (A") (A') (A') (A") (A') (A") (A')
                 (A") (A') (A') (A') (A") (A') (A') (A") (A') (A')
                 (A") (A') (A') (A") (A") (A') (A') (A') (A") (A')
                 (A') (A") (A') (A") (A') (A') (A') (A')
 The electronic state of the initial guess is 1-A'.
 Generating alternative initial guess.
 Harris functional with IExCor=  402 diagonalized for initial guess.
 ExpMin= 1.43D-01 ExpMax= 5.74D+05 ExpMxC= 5.74D+03 IAcc=2 IRadAn=         4 AccDes= 0.00D+00
 HarFok:  IExCor= 402 AccDes= 0.00D+00 IRadAn=         4 IDoV=1
 ScaDFX=  1.000000  1.000000  1.000000  1.000000
 Harris En= -2611.68893864242    
 Leave Link  401 at Fri Dec 14 16:28:08 2012, MaxMem=  346030080 cpu:       3.0
 (Enter /afs/physto.se/common/scratch/odelius/x86_64//g03root/g03/l502.exe)
 Closed shell SCF:
 Requested convergence on RMS density matrix=1.00D-08 within 128 cycles.
 Requested convergence on MAX density matrix=1.00D-06.
 Requested convergence on             energy=1.00D-06.
 No special actions if energy rises.
 Using DIIS extrapolation, IDIIS=  1040.
 Integral symmetry usage will be decided dynamically.
        43518 words used for storage of precomputed grid.
 Keep R1 integrals in memory in canonical form, NReq=     2290030.
 IEnd=     73021 IEndB=     73021 NGot= 346030080 MDV= 344301981
 LenX= 344301981
 Symmetry not used in FoFDir.
 MinBra= 0 MaxBra= 2 Meth= 1.
 IRaf=       0 NMat=   1 IRICut=       1 DoRegI=T DoRafI=F ISym2E= 0 JSym2E=0.
 Integral accuracy reduced to 1.0D-05 until final iterations.

 Cycle   1  Pass 0  IDiag  1:
 E= -2611.62011143076    
 DIIS: error= 2.10D-03 at cycle   1 NSaved=   1.
 NSaved= 1 IEnMin= 1 EnMin= -2611.62011143076     IErMin= 1 ErrMin= 2.10D-03
 ErrMax= 2.10D-03 EMaxC= 1.00D-01 BMatC= 2.58D-04 BMatP= 2.58D-04
 IDIUse=3 WtCom= 9.79D-01 WtEn= 2.10D-02
 Coeff-Com:  0.100D+01
 Coeff-En:   0.100D+01
 Coeff:      0.100D+01
 Gap=     0.275 Goal=   None    Shift=    0.000
 GapD=    0.275 DampG=1.000 DampE=1.000 DampFc=1.0000 IDamp=-1.
 RMSDP=1.54D-04 MaxDP=1.50D-03              OVMax= 2.17D-03

 Cycle   2  Pass 0  IDiag  1:
 E= -2611.62016455102     Delta-E=       -0.000053120258 Rises=F Damp=F
 DIIS: error= 2.08D-04 at cycle   2 NSaved=   2.
 NSaved= 2 IEnMin= 2 EnMin= -2611.62016455102     IErMin= 2 ErrMin= 2.08D-04
 ErrMax= 2.08D-04 EMaxC= 1.00D-01 BMatC= 3.43D-06 BMatP= 2.58D-04
 IDIUse=3 WtCom= 9.98D-01 WtEn= 2.08D-03
 Coeff-Com:  0.247D-01 0.975D+00
 Coeff-En:   0.000D+00 0.100D+01
 Coeff:      0.246D-01 0.975D+00
 Gap=     0.274 Goal=   None    Shift=    0.000
 RMSDP=5.24D-05 MaxDP=7.04D-04 DE=-5.31D-05 OVMax= 1.40D-03

 Cycle   3  Pass 0  IDiag  1:
 E= -2611.62016356289     Delta-E=        0.000000988126 Rises=F Damp=F
 DIIS: error= 2.41D-04 at cycle   3 NSaved=   3.
 NSaved= 3 IEnMin= 2 EnMin= -2611.62016455102     IErMin= 2 ErrMin= 2.08D-04
 ErrMax= 2.41D-04 EMaxC= 1.00D-01 BMatC= 4.19D-06 BMatP= 3.43D-06
 IDIUse=3 WtCom= 3.92D-01 WtEn= 6.08D-01
 Coeff-Com:  0.541D-03 0.526D+00 0.473D+00
 Coeff-En:   0.000D+00 0.560D+00 0.440D+00
 Coeff:      0.212D-03 0.547D+00 0.453D+00
 Gap=     0.274 Goal=   None    Shift=    0.000
 RMSDP=3.22D-05 MaxDP=4.75D-04 DE= 9.88D-07 OVMax= 9.41D-04

 Cycle   4  Pass 0  IDiag  1:
 E= -2611.62016799364     Delta-E=       -0.000004430752 Rises=F Damp=F
 DIIS: error= 3.46D-05 at cycle   4 NSaved=   4.
 NSaved= 4 IEnMin= 4 EnMin= -2611.62016799364     IErMin= 4 ErrMin= 3.46D-05
 ErrMax= 3.46D-05 EMaxC= 1.00D-01 BMatC= 8.53D-08 BMatP= 3.43D-06
 IDIUse=1 WtCom= 1.00D+00 WtEn= 0.00D+00
 Coeff-Com: -0.125D-02 0.170D+00 0.192D+00 0.640D+00
 Coeff:     -0.125D-02 0.170D+00 0.192D+00 0.640D+00
 Gap=     0.274 Goal=   None    Shift=    0.000
 RMSDP=6.55D-06 MaxDP=1.13D-04 DE=-4.43D-06 OVMax= 1.84D-04

 Initial convergence to 1.0D-05 achieved.  Increase integral accuracy.
 Cycle   5  Pass 1  IDiag  1:
 E= -2611.62111180458     Delta-E=       -0.000943810936 Rises=F Damp=F
 DIIS: error= 1.26D-04 at cycle   1 NSaved=   1.
 NSaved= 1 IEnMin= 1 EnMin= -2611.62111180458     IErMin= 1 ErrMin= 1.26D-04
 ErrMax= 1.26D-04 EMaxC= 1.00D-01 BMatC= 1.78D-07 BMatP= 1.78D-07
 IDIUse=3 WtCom= 9.99D-01 WtEn= 1.26D-03
 Coeff-Com:  0.100D+01
 Coeff-En:   0.100D+01
 Coeff:      0.100D+01
 Gap=     0.274 Goal=   None    Shift=    0.000
 RMSDP=6.55D-06 MaxDP=1.13D-04 DE=-9.44D-04 OVMax= 1.20D-04

 Cycle   6  Pass 1  IDiag  1:
 E= -2611.62111186067     Delta-E=       -0.000000056090 Rises=F Damp=F
 DIIS: error= 9.76D-06 at cycle   2 NSaved=   2.
 NSaved= 2 IEnMin= 2 EnMin= -2611.62111186067     IErMin= 2 ErrMin= 9.76D-06
 ErrMax= 9.76D-06 EMaxC= 1.00D-01 BMatC= 5.99D-09 BMatP= 1.78D-07
 IDIUse=1 WtCom= 1.00D+00 WtEn= 0.00D+00
 Coeff-Com:  0.659D-01 0.934D+00
 Coeff:      0.659D-01 0.934D+00
 Gap=     0.274 Goal=   None    Shift=    0.000
 RMSDP=3.61D-06 MaxDP=5.43D-05 DE=-5.61D-08 OVMax= 6.92D-05

 Cycle   7  Pass 1  IDiag  1:
 E= -2611.62111186220     Delta-E=       -0.000000001527 Rises=F Damp=F
 DIIS: error= 7.56D-06 at cycle   3 NSaved=   3.
 NSaved= 3 IEnMin= 3 EnMin= -2611.62111186220     IErMin= 3 ErrMin= 7.56D-06
 ErrMax= 7.56D-06 EMaxC= 1.00D-01 BMatC= 4.79D-09 BMatP= 5.99D-09
 IDIUse=1 WtCom= 1.00D+00 WtEn= 0.00D+00
 Coeff-Com:  0.232D-02 0.471D+00 0.526D+00
 Coeff:      0.232D-02 0.471D+00 0.526D+00
 Gap=     0.274 Goal=   None    Shift=    0.000
 RMSDP=1.62D-06 MaxDP=2.67D-05 DE=-1.53D-09 OVMax= 3.99D-05

 Cycle   8  Pass 1  IDiag  1:
 E= -2611.62111186726     Delta-E=       -0.000000005065 Rises=F Damp=F
 DIIS: error= 2.09D-06 at cycle   4 NSaved=   4.
 NSaved= 4 IEnMin= 4 EnMin= -2611.62111186726     IErMin= 4 ErrMin= 2.09D-06
 ErrMax= 2.09D-06 EMaxC= 1.00D-01 BMatC= 2.79D-10 BMatP= 4.79D-09
 IDIUse=1 WtCom= 1.00D+00 WtEn= 0.00D+00
 Coeff-Com: -0.114D-02 0.228D+00 0.294D+00 0.478D+00
 Coeff:     -0.114D-02 0.228D+00 0.294D+00 0.478D+00
 Gap=     0.274 Goal=   None    Shift=    0.000
 RMSDP=2.58D-07 MaxDP=3.75D-06 DE=-5.06D-09 OVMax= 7.03D-06

 Cycle   9  Pass 1  IDiag  1:
 E= -2611.62111186757     Delta-E=       -0.000000000306 Rises=F Damp=F
 DIIS: error= 1.31D-07 at cycle   5 NSaved=   5.
 NSaved= 5 IEnMin= 5 EnMin= -2611.62111186757     IErMin= 5 ErrMin= 1.31D-07
 ErrMax= 1.31D-07 EMaxC= 1.00D-01 BMatC= 9.81D-13 BMatP= 2.79D-10
 IDIUse=1 WtCom= 1.00D+00 WtEn= 0.00D+00
 Coeff-Com: -0.207D-03 0.519D-02 0.943D-02 0.610D-01 0.925D+00
 Coeff:     -0.207D-03 0.519D-02 0.943D-02 0.610D-01 0.925D+00
 Gap=     0.274 Goal=   None    Shift=    0.000
 RMSDP=2.63D-08 MaxDP=4.56D-07 DE=-3.06D-10 OVMax= 3.47D-07

 Cycle  10  Pass 1  IDiag  1:
 E= -2611.62111186757     Delta-E=       -0.000000000002 Rises=F Damp=F
 DIIS: error= 2.34D-08 at cycle   6 NSaved=   6.
 NSaved= 6 IEnMin= 6 EnMin= -2611.62111186757     IErMin= 6 ErrMin= 2.34D-08
 ErrMax= 2.34D-08 EMaxC= 1.00D-01 BMatC= 4.32D-14 BMatP= 9.81D-13
 IDIUse=1 WtCom= 1.00D+00 WtEn= 0.00D+00
 Coeff-Com: -0.354D-04-0.408D-02-0.447D-02 0.648D-02 0.250D+00 0.752D+00
 Coeff:     -0.354D-04-0.408D-02-0.447D-02 0.648D-02 0.250D+00 0.752D+00
 Gap=     0.274 Goal=   None    Shift=    0.000
 RMSDP=4.71D-09 MaxDP=5.30D-08 DE=-2.27D-12 OVMax= 8.22D-08

 SCF Done:  E(RB+HF-LYP) =  -2611.62111187     A.U. after   10 cycles
             Convg  =    0.4711D-08             -V/T =  2.0062
             S**2   =   0.0000
 KE= 2.595568808121D+03 PE=-6.402769344045D+03 EE= 1.107311774907D+03
 Leave Link  502 at Fri Dec 14 16:28:14 2012, MaxMem=  346030080 cpu:      14.0
 (Enter /afs/physto.se/common/scratch/odelius/x86_64//g03root/g03/l701.exe)
 Compute integral first derivatives.
 ... and contract with generalized density number  0.
 Leave Link  701 at Fri Dec 14 16:28:16 2012, MaxMem=  346030080 cpu:       0.8
 (Enter /afs/physto.se/common/scratch/odelius/x86_64//g03root/g03/l702.exe)
 L702 exits ... SP integral derivatives will be done elsewhere.
 Leave Link  702 at Fri Dec 14 16:28:17 2012, MaxMem=  346030080 cpu:       0.0
 (Enter /afs/physto.se/common/scratch/odelius/x86_64//g03root/g03/l703.exe)
 Compute integral first derivatives, UseDBF=F.
 Integral derivatives from FoFDir, PRISM(SPDF).
 Petite list used in FoFDir.
 MinBra= 0 MaxBra= 2 Meth= 1.
 IRaf=       0 NMat=   1 IRICut=       1 DoRegI=T DoRafI=F ISym2E= 1 JSym2E=1.
 Leave Link  703 at Fri Dec 14 16:28:20 2012, MaxMem=  346030080 cpu:       5.3
 (Enter /afs/physto.se/common/scratch/odelius/x86_64//g03root/g03/l716.exe)
 Dipole        =-7.53529435D-05 7.66941491D-01-1.10608674D-16
 ***** Axes restored to original set *****
 -------------------------------------------------------------------
 Center     Atomic                   Forces (Hartrees/Bohr)
 Number     Number              X              Y              Z
 -------------------------------------------------------------------
    1          6           0.000036942   -0.002166478    0.000000000
    2          1           0.000053819    0.000760475    0.000000000
    3          1          -0.000038478    0.000736859   -0.000051650
    4          1          -0.000038478    0.000736859    0.000051650
    5         35          -0.000013806   -0.000067714    0.000000000
 -------------------------------------------------------------------
 Cartesian Forces:  Max     0.002166478 RMS     0.000651931
 Leave Link  716 at Fri Dec 14 16:28:22 2012, MaxMem=  346030080 cpu:       0.0
 (Enter /afs/physto.se/common/scratch/odelius/x86_64//g03root/g03/l103.exe)

 GradGradGradGradGradGradGradGradGradGradGradGradGradGradGradGradGradGrad
 Berny optimization.
 Internal  Forces:  Max     0.000823254 RMS     0.000612012
 Search for a local minimum.
 Step number   3 out of a maximum of  20
 All quantities printed in internal units (Hartrees-Bohrs-Radians)
 Update second derivatives using D2CorX and points  1  2  3
 Trust test= 1.16D+00 RLast= 4.54D-02 DXMaxT set to 4.24D-01
 The second derivative matrix:
                          R1        R2        R3        R4        A1
           R1           0.35652
           R2          -0.00100   0.35643
           R3          -0.00100  -0.00098   0.35643
           R4           0.00089   0.00081   0.00081   0.16197
           A1           0.00370   0.00368   0.00368  -0.02314   0.15691
           A2           0.00370   0.00368   0.00368  -0.02314  -0.00309
           A3          -0.00408  -0.00406  -0.00406   0.02701   0.00253
           A4           0.00370   0.00368   0.00368  -0.02314  -0.00308
           A5          -0.00411  -0.00409  -0.00409   0.02723   0.00255
           A6          -0.00411  -0.00409  -0.00409   0.02723   0.00255
                          A2        A3        A4        A5        A6
           A2           0.15691
           A3           0.00253   0.15824
           A4          -0.00308   0.00252   0.15692
           A5           0.00255  -0.00178   0.00255   0.15821
           A6           0.00255  -0.00178   0.00255  -0.00179   0.15821
     Eigenvalues ---    0.09063   0.16000   0.16000   0.16000   0.16000
     Eigenvalues ---    0.21526   0.35584   0.35741   0.357491000.00000
 RFO step:  Lambda=-9.62866597D-06.
 Quartic linear search produced a step of  0.25178.
 Iteration  1 RMS(Cart)=  0.00438770 RMS(Int)=  0.00007053
 Iteration  2 RMS(Cart)=  0.00002544 RMS(Int)=  0.00006571
 Iteration  3 RMS(Cart)=  0.00000000 RMS(Int)=  0.00006571
 Variable       Old X    -DE/DX   Delta X   Delta X   Delta X     New X
                                 (Linear)    (Quad)   (Total)
    R1        2.05416   0.00016   0.00029   0.00062   0.00091   2.05507
    R2        2.05421   0.00016   0.00029   0.00063   0.00092   2.05512
    R3        2.05421   0.00016   0.00029   0.00063   0.00092   2.05512
    R4        3.71566   0.00007   0.00248  -0.00817  -0.00569   3.70997
    A1        1.94697  -0.00075  -0.00429  -0.00197  -0.00635   1.94062
    A2        1.94697  -0.00075  -0.00429  -0.00197  -0.00635   1.94062
    A3        1.87253   0.00082   0.00478   0.00222   0.00692   1.87944
    A4        1.94715  -0.00075  -0.00429  -0.00197  -0.00635   1.94080
    A5        1.87273   0.00081   0.00482   0.00212   0.00685   1.87958
    A6        1.87273   0.00081   0.00482   0.00212   0.00685   1.87958
         Item               Value     Threshold  Converged?
 Maximum Force            0.000823     0.000450     NO 
 RMS     Force            0.000612     0.000300     NO 
 Maximum Displacement     0.009384     0.001800     NO 
 RMS     Displacement     0.004392     0.001200     NO 
 Predicted change in Energy=-1.506141D-05
 GradGradGradGradGradGradGradGradGradGradGradGradGradGradGradGradGradGrad

 Leave Link  103 at Fri Dec 14 16:28:23 2012, MaxMem=  346030080 cpu:       0.0
 (Enter /afs/physto.se/common/scratch/odelius/x86_64//g03root/g03/l202.exe)
                          Input orientation:                          
 ---------------------------------------------------------------------
 Center     Atomic     Atomic              Coordinates (Angstroms)
 Number     Number      Type              X           Y           Z
 ---------------------------------------------------------------------
    1          6             0        0.000757    0.289781    0.000000
    2          1             0       -1.041483    0.600246    0.000000
    3          1             0        0.512297    0.630128    0.897329
    4          1             0        0.512297    0.630128   -0.897329
    5         35             0        0.038321   -1.673090    0.000000
 ---------------------------------------------------------------------
                    Distance matrix (angstroms):
                    1          2          3          4          5
     1  C    0.000000
     2  H    1.087498   0.000000
     3  H    1.087525   1.794527   0.000000
     4  H    1.087525   1.794527   1.794659   0.000000
     5  Br   1.963231   2.516751   2.516877   2.516877   0.000000
 Stoichiometry    CH3Br
 Framework group  CS[SG(CHBr),X(H2)]
 Deg. of freedom     6
 Full point group                 CS      NOp   2
 Largest Abelian subgroup         CS      NOp   2
 Largest concise Abelian subgroup CS      NOp   2
                         Standard orientation:                         
 ---------------------------------------------------------------------
 Center     Atomic     Atomic              Coordinates (Angstroms)
 Number     Number      Type              X           Y           Z
 ---------------------------------------------------------------------
    1          6             0        0.000004    1.539130    0.000000
    2          1             0       -1.036104    1.869481    0.000000
    3          1             0        0.517964    1.869628    0.897329
    4          1             0        0.517964    1.869628   -0.897329
    5         35             0        0.000004   -0.424101    0.000000
 ---------------------------------------------------------------------
 Rotational constants (GHZ):    155.7079520      9.3793480      9.3792927
 Leave Link  202 at Fri Dec 14 16:28:25 2012, MaxMem=  346030080 cpu:       0.1
 (Enter /afs/physto.se/common/scratch/odelius/x86_64//g03root/g03/l301.exe)
 Standard basis: 6-31G(d,p) (6D, 7F)
 There are    42 symmetry adapted basis functions of A'  symmetry.
 There are    18 symmetry adapted basis functions of A"  symmetry.
 Integral buffers will be    262144 words long.
 Raffenetti 2 integral format.
 Two-electron integral symmetry is turned on.
    60 basis functions,   132 primitive gaussians,    60 cartesian basis functions
    22 alpha electrons       22 beta electrons
       nuclear repulsion energy        88.3243206049 Hartrees.
 IExCor= 402 DFT=T Ex=B+HF Corr=LYP ExCW=0 ScaHFX=  0.200000
 ScaDFX=  0.800000  0.720000  1.000000  0.810000
 IRadAn=      0 IRanWt=     -1 IRanGd=            0 ICorTp=0
 NAtoms=    5 NActive=    5 NUniq=    4 SFac= 1.75D+00 NAtFMM=   60 Big=F
 Leave Link  301 at Fri Dec 14 16:28:37 2012, MaxMem=  346030080 cpu:      32.8
 (Enter /afs/physto.se/common/scratch/odelius/x86_64//g03root/g03/l302.exe)
 NPDir=0 NMtPBC=     1 NCelOv=     1 NCel=       1 NClECP=     1 NCelD=      1
         NCelK=      1 NCelE2=     1 NClLst=     1 CellRange=     0.0.
 One-electron integrals computed using PRISM.
 One-electron integral symmetry used in STVInt
 NBasis=    60 RedAO= T  NBF=    42    18
 NBsUse=    60 1.00D-06 NBFU=    42    18
 Precomputing XC quadrature grid using
 IXCGrd= 2 IRadAn=           0 IRanWt=          -1 IRanGd=           0.
 NRdTot=     304 NPtTot=       42140 NUsed=       43519 NTot=       43535
 NSgBfM=    60    60    60    60.
 Leave Link  302 at Fri Dec 14 16:28:39 2012, MaxMem=  346030080 cpu:       0.4
 (Enter /afs/physto.se/common/scratch/odelius/x86_64//g03root/g03/l303.exe)
 DipDrv:  MaxL=1.
 Leave Link  303 at Fri Dec 14 16:28:40 2012, MaxMem=  346030080 cpu:       0.0
 (Enter /afs/physto.se/common/scratch/odelius/x86_64//g03root/g03/l401.exe)
 Initial guess read from the read-write file:
 Guess basis will be translated and rotated to current coordinates.
 Initial guess orbital symmetries:
       Occupied  (A') (A') (A') (A') (A") (A') (A') (A') (A') (A")
                 (A') (A") (A') (A") (A') (A') (A') (A") (A') (A')
                 (A") (A')
       Virtual   (A') (A') (A') (A") (A') (A") (A') (A') (A") (A')
                 (A") (A') (A') (A') (A") (A') (A') (A") (A') (A')
                 (A") (A') (A') (A") (A') (A") (A') (A') (A") (A')
                 (A') (A") (A') (A") (A') (A') (A') (A')
 The electronic state of the initial guess is 1-A'.
 Leave Link  401 at Fri Dec 14 16:28:42 2012, MaxMem=  346030080 cpu:       0.2
 (Enter /afs/physto.se/common/scratch/odelius/x86_64//g03root/g03/l502.exe)
 Closed shell SCF:
 Requested convergence on RMS density matrix=1.00D-08 within 128 cycles.
 Requested convergence on MAX density matrix=1.00D-06.
 Requested convergence on             energy=1.00D-06.
 No special actions if energy rises.
 Using DIIS extrapolation, IDIIS=  1040.
 Integral symmetry usage will be decided dynamically.
        43518 words used for storage of precomputed grid.
 Keep R1 integrals in memory in canonical form, NReq=     2290030.
 IEnd=     73021 IEndB=     73021 NGot= 346030080 MDV= 344301981
 LenX= 344301981
 Symmetry not used in FoFDir.
 MinBra= 0 MaxBra= 2 Meth= 1.
 IRaf=       0 NMat=   1 IRICut=       1 DoRegI=T DoRafI=F ISym2E= 0 JSym2E=0.

 Cycle   1  Pass 1  IDiag  1:
 E= -2611.62111715733    
 DIIS: error= 4.97D-04 at cycle   1 NSaved=   1.
 NSaved= 1 IEnMin= 1 EnMin= -2611.62111715733     IErMin= 1 ErrMin= 4.97D-04
 ErrMax= 4.97D-04 EMaxC= 1.00D-01 BMatC= 2.23D-05 BMatP= 2.23D-05
 IDIUse=3 WtCom= 9.95D-01 WtEn= 4.97D-03
 Coeff-Com:  0.100D+01
 Coeff-En:   0.100D+01
 Coeff:      0.100D+01
 Gap=     0.275 Goal=   None    Shift=    0.000
 RMSDP=6.99D-05 MaxDP=7.49D-04              OVMax= 1.16D-03

 Cycle   2  Pass 1  IDiag  1:
 E= -2611.62112663232     Delta-E=       -0.000009474991 Rises=F Damp=F
 DIIS: error= 3.82D-05 at cycle   2 NSaved=   2.
 NSaved= 2 IEnMin= 2 EnMin= -2611.62112663232     IErMin= 2 ErrMin= 3.82D-05
 ErrMax= 3.82D-05 EMaxC= 1.00D-01 BMatC= 1.03D-07 BMatP= 2.23D-05
 IDIUse=1 WtCom= 1.00D+00 WtEn= 0.00D+00
 Coeff-Com: -0.188D-02 0.100D+01
 Coeff:     -0.188D-02 0.100D+01
 Gap=     0.275 Goal=   None    Shift=    0.000
 RMSDP=1.08D-05 MaxDP=1.36D-04 DE=-9.47D-06 OVMax= 2.11D-04

 Cycle   3  Pass 1  IDiag  1:
 E= -2611.62112674766     Delta-E=       -0.000000115336 Rises=F Damp=F
 DIIS: error= 1.60D-05 at cycle   3 NSaved=   3.
 NSaved= 3 IEnMin= 3 EnMin= -2611.62112674766     IErMin= 3 ErrMin= 1.60D-05
 ErrMax= 1.60D-05 EMaxC= 1.00D-01 BMatC= 2.06D-08 BMatP= 1.03D-07
 IDIUse=1 WtCom= 1.00D+00 WtEn= 0.00D+00
 Coeff-Com: -0.453D-02 0.286D+00 0.718D+00
 Coeff:     -0.453D-02 0.286D+00 0.718D+00
 Gap=     0.275 Goal=   None    Shift=    0.000
 RMSDP=4.17D-06 MaxDP=6.42D-05 DE=-1.15D-07 OVMax= 7.12D-05

 Cycle   4  Pass 1  IDiag  1:
 E= -2611.62112677107     Delta-E=       -0.000000023408 Rises=F Damp=F
 DIIS: error= 5.17D-06 at cycle   4 NSaved=   4.
 NSaved= 4 IEnMin= 4 EnMin= -2611.62112677107     IErMin= 4 ErrMin= 5.17D-06
 ErrMax= 5.17D-06 EMaxC= 1.00D-01 BMatC= 1.37D-09 BMatP= 2.06D-08
 IDIUse=1 WtCom= 1.00D+00 WtEn= 0.00D+00
 Coeff-Com: -0.148D-02 0.552D-01 0.237D+00 0.709D+00
 Coeff:     -0.148D-02 0.552D-01 0.237D+00 0.709D+00
 Gap=     0.275 Goal=   None    Shift=    0.000
 RMSDP=1.11D-06 MaxDP=1.89D-05 DE=-2.34D-08 OVMax= 1.35D-05

 Cycle   5  Pass 1  IDiag  1:
 E= -2611.62112677238     Delta-E=       -0.000000001312 Rises=F Damp=F
 DIIS: error= 7.93D-07 at cycle   5 NSaved=   5.
 NSaved= 5 IEnMin= 5 EnMin= -2611.62112677238     IErMin= 5 ErrMin= 7.93D-07
 ErrMax= 7.93D-07 EMaxC= 1.00D-01 BMatC= 5.40D-11 BMatP= 1.37D-09
 IDIUse=1 WtCom= 1.00D+00 WtEn= 0.00D+00
 Coeff-Com: -0.682D-04-0.611D-02 0.185D-01 0.176D+00 0.811D+00
 Coeff:     -0.682D-04-0.611D-02 0.185D-01 0.176D+00 0.811D+00
 Gap=     0.275 Goal=   None    Shift=    0.000
 RMSDP=1.97D-07 MaxDP=3.18D-06 DE=-1.31D-09 OVMax= 5.12D-06

 Cycle   6  Pass 1  IDiag  1:
 E= -2611.62112677241     Delta-E=       -0.000000000027 Rises=F Damp=F
 DIIS: error= 5.71D-07 at cycle   6 NSaved=   6.
 NSaved= 6 IEnMin= 6 EnMin= -2611.62112677241     IErMin= 6 ErrMin= 5.71D-07
 ErrMax= 5.71D-07 EMaxC= 1.00D-01 BMatC= 2.10D-11 BMatP= 5.40D-11
 IDIUse=1 WtCom= 1.00D+00 WtEn= 0.00D+00
 Coeff-Com:  0.163D-04-0.577D-02 0.902D-03 0.762D-01 0.492D+00 0.437D+00
 Coeff:      0.163D-04-0.577D-02 0.902D-03 0.762D-01 0.492D+00 0.437D+00
 Gap=     0.275 Goal=   None    Shift=    0.000
 RMSDP=7.01D-08 MaxDP=1.08D-06 DE=-2.68D-11 OVMax= 2.15D-06

 Cycle   7  Pass 1  IDiag  1:
 E= -2611.62112677243     Delta-E=       -0.000000000023 Rises=F Damp=F
 DIIS: error= 2.08D-08 at cycle   7 NSaved=   7.
 NSaved= 7 IEnMin= 7 EnMin= -2611.62112677243     IErMin= 7 ErrMin= 2.08D-08
 ErrMax= 2.08D-08 EMaxC= 1.00D-01 BMatC= 1.97D-14 BMatP= 2.10D-11
 IDIUse=1 WtCom= 1.00D+00 WtEn= 0.00D+00
 Coeff-Com:  0.404D-05-0.694D-03 0.995D-04 0.817D-02 0.500D-01 0.541D-01
 Coeff-Com:  0.888D+00
 Coeff:      0.404D-05-0.694D-03 0.995D-04 0.817D-02 0.500D-01 0.541D-01
 Coeff:      0.888D+00
 Gap=     0.275 Goal=   None    Shift=    0.000
 RMSDP=4.73D-09 MaxDP=7.30D-08 DE=-2.32D-11 OVMax= 1.10D-07

 SCF Done:  E(RB+HF-LYP) =  -2611.62112677     A.U. after    7 cycles
             Convg  =    0.4726D-08             -V/T =  2.0062
             S**2   =   0.0000
 KE= 2.595568458932D+03 PE=-6.402870821376D+03 EE= 1.107356915067D+03
 Leave Link  502 at Fri Dec 14 16:28:44 2012, MaxMem=  346030080 cpu:       4.7
 (Enter /afs/physto.se/common/scratch/odelius/x86_64//g03root/g03/l701.exe)
 Compute integral first derivatives.
 ... and contract with generalized density number  0.
 Leave Link  701 at Fri Dec 14 16:28:46 2012, MaxMem=  346030080 cpu:       0.5
 (Enter /afs/physto.se/common/scratch/odelius/x86_64//g03root/g03/l702.exe)
 L702 exits ... SP integral derivatives will be done elsewhere.
 Leave Link  702 at Fri Dec 14 16:28:47 2012, MaxMem=  346030080 cpu:       0.0
 (Enter /afs/physto.se/common/scratch/odelius/x86_64//g03root/g03/l703.exe)
 Compute integral first derivatives, UseDBF=F.
 Integral derivatives from FoFDir, PRISM(SPDF).
 Petite list used in FoFDir.
 MinBra= 0 MaxBra= 2 Meth= 1.
 IRaf=       0 NMat=   1 IRICut=       1 DoRegI=T DoRafI=F ISym2E= 1 JSym2E=1.
 Leave Link  703 at Fri Dec 14 16:28:50 2012, MaxMem=  346030080 cpu:       5.4
 (Enter /afs/physto.se/common/scratch/odelius/x86_64//g03root/g03/l716.exe)
 Dipole        =-6.79236945D-05 7.61901877D-01 7.57464260D-16
 ***** Axes restored to original set *****
 -------------------------------------------------------------------
 Center     Atomic                   Forces (Hartrees/Bohr)
 Number     Number              X              Y              Z
 -------------------------------------------------------------------
    1          6          -0.000002992    0.000155517    0.000000000
    2          1          -0.000012506    0.000005982    0.000000000
    3          1           0.000014859   -0.000011510    0.000015979
    4          1           0.000014859   -0.000011510   -0.000015979
    5         35          -0.000014219   -0.000138479    0.000000000
 -------------------------------------------------------------------
 Cartesian Forces:  Max     0.000155517 RMS     0.000054762
 Leave Link  716 at Fri Dec 14 16:28:52 2012, MaxMem=  346030080 cpu:       0.0
 (Enter /afs/physto.se/common/scratch/odelius/x86_64//g03root/g03/l103.exe)

 GradGradGradGradGradGradGradGradGradGradGradGradGradGradGradGradGradGrad
 Berny optimization.
 Internal  Forces:  Max     0.000138182 RMS     0.000045463
 Search for a local minimum.
 Step number   4 out of a maximum of  20
 All quantities printed in internal units (Hartrees-Bohrs-Radians)
 Update second derivatives using D2CorX and points  1  2  3  4
 Trust test= 9.90D-01 RLast= 1.72D-02 DXMaxT set to 4.24D-01
 The second derivative matrix:
                          R1        R2        R3        R4        A1
           R1           0.35633
           R2          -0.00120   0.35623
           R3          -0.00120  -0.00118   0.35623
           R4           0.00072   0.00066   0.00066   0.15378
           A1           0.00413   0.00411   0.00411  -0.01883   0.15647
           A2           0.00413   0.00411   0.00411  -0.01883  -0.00353
           A3          -0.00456  -0.00454  -0.00454   0.02144   0.00357
           A4           0.00413   0.00411   0.00411  -0.01883  -0.00353
           A5          -0.00456  -0.00454  -0.00454   0.02157   0.00351
           A6          -0.00456  -0.00454  -0.00454   0.02157   0.00351
                          A2        A3        A4        A5        A6
           A2           0.15647
           A3           0.00357   0.15646
           A4          -0.00353   0.00357   0.15647
           A5           0.00351  -0.00346   0.00351   0.15663
           A6           0.00351  -0.00346   0.00351  -0.00337   0.15663
     Eigenvalues ---    0.09550   0.16000   0.16000   0.16000   0.16000
     Eigenvalues ---    0.19569   0.35549   0.35741   0.357491000.00000
 RFO step:  Lambda=-1.23350521D-07.
 Quartic linear search produced a step of -0.03766.
 Iteration  1 RMS(Cart)=  0.00026379 RMS(Int)=  0.00000079
 Iteration  2 RMS(Cart)=  0.00000004 RMS(Int)=  0.00000079
 Variable       Old X    -DE/DX   Delta X   Delta X   Delta X     New X
                                 (Linear)    (Quad)   (Total)
    R1        2.05507   0.00002  -0.00003   0.00006   0.00002   2.05510
    R2        2.05512   0.00002  -0.00003   0.00006   0.00002   2.05515
    R3        2.05512   0.00002  -0.00003   0.00006   0.00002   2.05515
    R4        3.70997   0.00014   0.00021   0.00088   0.00109   3.71106
    A1        1.94062   0.00001   0.00024  -0.00001   0.00023   1.94085
    A2        1.94062   0.00001   0.00024  -0.00001   0.00023   1.94085
    A3        1.87944  -0.00001  -0.00026   0.00003  -0.00023   1.87921
    A4        1.94080   0.00001   0.00024  -0.00001   0.00023   1.94103
    A5        1.87958  -0.00001  -0.00026   0.00000  -0.00026   1.87932
    A6        1.87958  -0.00001  -0.00026   0.00000  -0.00026   1.87932
         Item               Value     Threshold  Converged?
 Maximum Force            0.000138     0.000450     YES
 RMS     Force            0.000045     0.000300     YES
 Maximum Displacement     0.000582     0.001800     YES
 RMS     Displacement     0.000264     0.001200     YES
 Predicted change in Energy=-8.425968D-08
 Optimization completed.
    -- Stationary point found.
                           ----------------------------
                           !   Optimized Parameters   !
[...]
   2   1     0.18   0.54   0.00     0.14   0.30   0.00     0.00   0.00   0.74
   3   1    -0.09   0.54  -0.16    -0.52  -0.15   0.38    -0.38   0.26   0.08
   4   1    -0.09   0.54   0.16    -0.52  -0.15  -0.38     0.38  -0.26   0.08
   5  35     0.00   0.00   0.00     0.00   0.00   0.00     0.00   0.00   0.00
                     7                      8                      9
                    A'                     A"                     A'
 Frequencies --  3099.0273              3213.0285              3213.3273
 Red. masses --     1.0254                 1.1102                 1.1101
 Frc consts  --     5.8025                 6.7526                 6.7537
 IR Inten    --    15.5719                 3.1991                 3.2178
 Atom AN      X      Y      Z        X      Y      Z        X      Y      Z
   1   6     0.00   0.04   0.00     0.00   0.00   0.10     0.10   0.00   0.00
   2   1     0.55  -0.16   0.00     0.00   0.00   0.02    -0.78   0.23   0.00
   3   1    -0.28  -0.16  -0.48    -0.34  -0.20  -0.58    -0.18  -0.12  -0.34
   4   1    -0.28  -0.16   0.48     0.34   0.20  -0.58    -0.18  -0.12   0.34
   5  35     0.00   0.00   0.00     0.00   0.00   0.00     0.00   0.00   0.00

 -------------------
 - Thermochemistry -
 -------------------
 Temperature   298.150 Kelvin.  Pressure   1.00000 Atm.
 Atom  1 has atomic number  6 and mass  12.00000
 Atom  2 has atomic number  1 and mass   1.00783
 Atom  3 has atomic number  1 and mass   1.00783
 Atom  4 has atomic number  1 and mass   1.00783
 Atom  5 has atomic number 35 and mass  78.91834
 Molecular mass:    93.94181 amu.
 Principal axes and moments of inertia in atomic units:
                           1         2         3
     EIGENVALUES --    11.59055 192.41649 192.41762
           X            0.00000   0.00000   1.00000
           Y            1.00000   0.00000   0.00000
           Z            0.00000   1.00000   0.00000
 This molecule is an asymmetric top.
 Rotational symmetry number  1.
 Rotational temperatures (Kelvin)      7.47279     0.45014     0.45013
 Rotational constants (GHZ):         155.70795     9.37935     9.37929
 Zero-point vibrational energy      97930.0 (Joules/Mol)
                                   23.40583 (Kcal/Mol)
 Warning -- explicit consideration of   1 degrees of freedom as
           vibrations may cause significant error
 Vibrational temperatures:    851.75  1390.09  1390.54  1931.17  2143.95
          (Kelvin)           2144.13  4458.80  4622.83  4623.26
 
 Zero-point correction=                           0.037300 (Hartree/Particle)
 Thermal correction to Energy=                    0.040400
 Thermal correction to Enthalpy=                  0.041344
 Thermal correction to Gibbs Free Energy=         0.012387
 Sum of electronic and zero-point Energies=          -2611.583827
 Sum of electronic and thermal Energies=             -2611.580727
 Sum of electronic and thermal Enthalpies=           -2611.579782
 Sum of electronic and thermal Free Energies=        -2611.608740
 
                     E (Thermal)             CV                S
                      KCal/Mol        Cal/Mol-Kelvin    Cal/Mol-Kelvin
 Total                   25.351              8.126             60.947
 Electronic               0.000              0.000              0.000
 Translational            0.889              2.981             39.532
 Rotational               0.889              2.981             20.689
 Vibrational             23.574              2.164              0.725
 Vibration  1             0.949              1.049              0.464
                       Q            Log10(Q)             Ln(Q)
 Total Bot       0.200712D-05         -5.697427        -13.118811
 Total V=0       0.287834D+12         11.459142         26.385650
 Vib (Bot)       0.756288D-17        -17.121313        -39.423280
 Vib (Bot)  1    0.254307D+00         -0.594642         -1.369215
 Vib (V=0)       0.108457D+01          0.035256          0.081181
 Vib (V=0)  1    0.106096D+01          0.025697          0.059171
 Electronic      0.100000D+01          0.000000          0.000000
 Translational   0.357885D+08          7.553744         17.393137
 Rotational      0.741553D+04          3.870142          8.911331
 
                                                 Reactant. CONTINUING FROM: reac.
 log
                                                             IR Spectrum
 
      3   3                                                               1    1                                                     
      2   0                                                               4    3              9              5                       
      1   9                                                               9    4              6              9                       
      3   9                                                               0    2              6              2                       
 
      X   X                                                               X    X              X              X                       
      X   X                                                               X    X              X              X                       
      X   X                                                               X    X              X              X                       
      X   X                                                               X    X              X              X                       
      X   X                                                               X    X              X              X                       
          X                                                               X    X              X              X                       
          X                                                               X    X              X              X                       
          X                                                               X    X              X              X                       
          X                                                                    X              X              X                       
          X                                                                    X                             X                       
          X                                                                    X                                                     
          X                                                                    X                                                     
                                                                               X                                                     
                                                                               X                                                     
                                                                               X                                                     
                                                                               X                                                     
                                                                               X                                                     
                                                                               X                                                     
                                                                               X                                                     
                                                                               X                                                     
 
 ***** Axes restored to original set *****
 -------------------------------------------------------------------
 Center     Atomic                   Forces (Hartrees/Bohr)
 Number     Number              X              Y              Z
 -------------------------------------------------------------------
    1          6          -0.000002992    0.000155509    0.000000000
    2          1          -0.000012496    0.000005976    0.000000000
    3          1           0.000014853   -0.000011516    0.000015969
    4          1           0.000014853   -0.000011516   -0.000015969
    5         35          -0.000014219   -0.000138452    0.000000000
 -------------------------------------------------------------------
 Cartesian Forces:  Max     0.000155509 RMS     0.000054755
 Force constants in Cartesian coordinates: 
                1             2             3             4             5
      1  0.576243D+00
      2  0.542908D-02  0.295130D+00
      3  0.000000D+00  0.000000D+00  0.576405D+00
      4 -0.318633D+00  0.753119D-01  0.000000D+00  0.334866D+00
      5  0.800275D-01 -0.583058D-01  0.000000D+00 -0.786995D-01  0.692976D-01
      6  0.000000D+00  0.000000D+00 -0.518741D-01  0.000000D+00  0.000000D+00
      7 -0.116155D+00 -0.412154D-01 -0.112710D+00 -0.108978D-01 -0.100237D-01
      8 -0.435399D-01 -0.630508D-01 -0.757714D-01  0.336069D-02  0.497600D-02
      9 -0.112799D+00 -0.717472D-01 -0.249605D+00  0.224706D-02  0.139816D-02
     10 -0.116155D+00 -0.412154D-01  0.112710D+00 -0.108978D-01 -0.100237D-01
     11 -0.435399D-01 -0.630508D-01  0.757714D-01  0.336069D-02  0.497600D-02
     12  0.112799D+00  0.717472D-01 -0.249605D+00 -0.224706D-02 -0.139816D-02
     13 -0.253007D-01  0.168994D-02  0.000000D+00  0.556207D-02  0.187194D-01
     14  0.162312D-02 -0.110722D+00  0.000000D+00 -0.333378D-02 -0.209438D-01
     15  0.000000D+00  0.000000D+00 -0.253207D-01  0.000000D+00  0.000000D+00
                6             7             8             9            10
      6  0.466779D-01
      7 -0.257231D-01  0.116222D+00
      8  0.860088D-02  0.427179D-01  0.740924D-01
      9  0.242429D-02  0.121936D+00  0.749089D-01  0.260404D+00
     10  0.257231D-01  0.890265D-02  0.611323D-02 -0.137599D-01  0.116222D+00
     11 -0.860088D-02  0.611323D-02  0.532883D-02 -0.799680D-02  0.427179D-01
     12  0.242429D-02  0.137599D-01  0.799680D-02 -0.177300D-01 -0.121936D+00
     13  0.000000D+00  0.192743D-02 -0.865194D-02  0.237656D-02  0.192743D-02
     14  0.000000D+00  0.240805D-02 -0.213465D-01  0.343693D-02  0.240805D-02
     15  0.347587D-03  0.273748D-02 -0.157352D-01  0.450703D-02 -0.273748D-02
               11            12            13            14            15
     11  0.740924D-01
     12 -0.749089D-01  0.260404D+00
     13 -0.865194D-02 -0.237656D-02  0.158838D-01
     14 -0.213465D-01 -0.343693D-02 -0.310543D-02  0.174359D+00
     15  0.157352D-01  0.450703D-02  0.000000D+00  0.000000D+00  0.159591D-01
 Force constants in internal coordinates: 
                1             2             3             4             5
      1  0.356267D+00
      2  0.155802D-02  0.356165D+00
      3  0.155802D-02  0.155969D-02  0.356165D+00
      4  0.277880D-02  0.271707D-02  0.271707D-02  0.174420D+00
      5  0.980937D-02  0.976229D-02 -0.744199D-02 -0.219309D-01  0.105637D+00
      6  0.980937D-02 -0.744199D-02  0.976229D-02 -0.219309D-01 -0.202143D-01
      7 -0.467309D-02 -0.413636D-02 -0.413636D-02  0.236038D-01 -0.227110D-01
      8 -0.746158D-02  0.978255D-02  0.978255D-02 -0.219471D-01 -0.202295D-01
      9 -0.418847D-02 -0.466737D-02 -0.419047D-02  0.235236D-01 -0.227699D-01
     10 -0.418847D-02 -0.419047D-02 -0.466737D-02  0.235236D-01 -0.245030D-01
                6             7             8             9            10
      6  0.105637D+00
      7 -0.227110D-01  0.122737D+00
      8 -0.202295D-01 -0.245084D-01  0.105636D+00
      9 -0.245030D-01 -0.238224D-01 -0.227386D-01  0.122891D+00
     10 -0.227699D-01 -0.238224D-01 -0.227386D-01 -0.239144D-01  0.122891D+00
 Leave Link  716 at Fri Dec 14 16:31:12 2012, MaxMem=  346030080 cpu:       0.0
 (Enter /afs/physto.se/common/scratch/odelius/x86_64//g03root/g03/l103.exe)

 GradGradGradGradGradGradGradGradGradGradGradGradGradGradGradGradGradGrad
 Berny optimization.
 Internal  Forces:  Max     0.000138154 RMS     0.000045454
 Search for a local minimum.
 Step number   1 out of a maximum of   2
 All quantities printed in internal units (Hartrees-Bohrs-Radians)
 Second derivative matrix not updated -- analytic derivatives used.
 The second derivative matrix:
                          R1        R2        R3        R4        A1
           R1           0.35627
           R2           0.00156   0.35617
           R3           0.00156   0.00156   0.35617
           R4           0.00278   0.00272   0.00272   0.17442
           A1           0.00981   0.00976  -0.00744  -0.02193   0.10564
           A2           0.00981  -0.00744   0.00976  -0.02193  -0.02021
           A3          -0.00467  -0.00414  -0.00414   0.02360  -0.02271
           A4          -0.00746   0.00978   0.00978  -0.02195  -0.02023
           A5          -0.00419  -0.00467  -0.00419   0.02352  -0.02277
           A6          -0.00419  -0.00419  -0.00467   0.02352  -0.02450
                          A2        A3        A4        A5        A6
           A2           0.10564
           A3          -0.02271   0.12274
           A4          -0.02023  -0.02451   0.10564
           A5          -0.02450  -0.02382  -0.02274   0.12289
           A6          -0.02277  -0.02382  -0.02274  -0.02391   0.12289
     Eigenvalues ---    0.09795   0.12442   0.12443   0.14673   0.14694
     Eigenvalues ---    0.21535   0.35589   0.35597   0.360751000.00000
 Angle between quadratic step and forces=  21.24 degrees.
 Linear search not attempted -- first point.
 Iteration  1 RMS(Cart)=  0.00023921 RMS(Int)=  0.00000005
 Iteration  2 RMS(Cart)=  0.00000004 RMS(Int)=  0.00000003
 Variable       Old X    -DE/DX   Delta X   Delta X   Delta X     New X
                                 (Linear)    (Quad)   (Total)
    R1        2.05507   0.00002   0.00000   0.00002   0.00002   2.05509
    R2        2.05512   0.00002   0.00000   0.00002   0.00002   2.05514
    R3        2.05512   0.00002   0.00000   0.00002   0.00002   2.05514
    R4        3.70997   0.00014   0.00000   0.00098   0.00098   3.71095
    A1        1.94062   0.00001   0.00000   0.00023   0.00023   1.94085
    A2        1.94062   0.00001   0.00000   0.00023   0.00023   1.94085
    A3        1.87944  -0.00001   0.00000  -0.00023  -0.00023   1.87922
    A4        1.94080   0.00001   0.00000   0.00023   0.00023   1.94103
    A5        1.87958  -0.00001   0.00000  -0.00026  -0.00026   1.87932
    A6        1.87958  -0.00001   0.00000  -0.00026  -0.00026   1.87932
         Item               Value     Threshold  Converged?
 Maximum Force            0.000138     0.000450     YES
 RMS     Force            0.000045     0.000300     YES
 Maximum Displacement     0.000494     0.001800     YES
 RMS     Displacement     0.000239     0.001200     YES
 Predicted change in Energy=-7.667842D-08
 Optimization completed.
    -- Stationary point found.
                           ----------------------------
                           !   Optimized Parameters   !
                           ! (Angstroms and Degrees)  !
 --------------------------                            --------------------------
 ! Name  Definition              Value          Derivative Info.                !
 --------------------------------------------------------------------------------
 ! R1    R(1,2)                  1.0875         -DE/DX =    0.0                 !
 ! R2    R(1,3)                  1.0875         -DE/DX =    0.0                 !
 ! R3    R(1,4)                  1.0875         -DE/DX =    0.0                 !
 ! R4    R(1,5)                  1.9632         -DE/DX =    0.0001              !
 ! A1    A(2,1,3)              111.1894         -DE/DX =    0.0                 !
 ! A2    A(2,1,4)              111.1894         -DE/DX =    0.0                 !
 ! A3    A(2,1,5)              107.6842         -DE/DX =    0.0                 !
 ! A4    A(3,1,4)              111.1996         -DE/DX =    0.0                 !
 ! A5    A(3,1,5)              107.6919         -DE/DX =    0.0                 !
 ! A6    A(4,1,5)              107.6919         -DE/DX =    0.0                 !
 --------------------------------------------------------------------------------
 GradGradGradGradGradGradGradGradGradGradGradGradGradGradGradGradGradGrad

 Leave Link  103 at Fri Dec 14 16:31:13 2012, MaxMem=  346030080 cpu:       0.0
 (Enter /afs/physto.se/common/scratch/odelius/x86_64//g03root/g03/l9999.exe)
 1\1\GINC-QCMDLX10\Freq\RB3LYP\6-31G(d,p)\C1H3Br1\TK\14-Dec-2012\0\\#P 
 GEOM=ALLCHECK GUESS=READ SCRF=CHECK GENCHK RB3LYP/6-31G(D,P) FREQ\\Rea
 ctant. CONTINUING FROM: reac.log\\0,1\C,-0.0294452134,1.5388487892,0.\
 H,-1.0716849819,1.8493139387,0.\H,0.4820956613,1.8791959233,0.89732938
 27\H,0.4820956613,1.8791959233,-0.8973293827\Br,0.0081189983,-0.424022
 8149,0.\\Version=x86-Linux-G03RevB.04\State=1-A'\HF=-2611.6211268\RMSD
 =2.777e-09\RMSF=5.475e-05\Dipole=-0.0146461,0.7617619,0.\DipoleDeriv=0
 .0606443,-0.0104696,0.,-0.0104416,0.6078049,0.,0.,0.,0.0603557,-0.0306
 497,0.0395806,0.,0.0548491,-0.0811536,0.,0.,0.,0.087036,0.0590448,-0.0
 166169,-0.0491764,-0.0242218,-0.0836962,-0.0476417,-0.0494131,-0.03444
 2,0.0003187,0.0590448,-0.0166169,0.0491764,-0.0242218,-0.0836962,0.047
 6417,0.0494131,0.034442,0.0003187,-0.1480842,0.0041228,0.,0.0040361,-0
 .3592589,0.,0.,0.,-0.1480291\Polar=22.1222038,-0.2706522,36.3003551,0.
 ,0.,22.11844\PG=CS [SG(C1H1Br1),X(H2)]\NImag=0\\0.57624289,0.00542908,
 0.29512973,0.,0.,0.57640506,-0.31863274,0.07531186,0.,0.33486633,0.080
 02751,-0.05830582,0.,-0.07869946,0.06929762,0.,0.,-0.05187406,0.,0.,0.
 04667788,-0.11615470,-0.04121544,-0.11270991,-0.01089783,-0.01002371,-
 0.02572311,0.11622245,-0.04353986,-0.06305079,-0.07577137,0.00336069,0
 .00497600,0.00860088,0.04271788,0.07409243,-0.11279935,-0.07174717,-0.
 24960513,0.00224706,0.00139816,0.00242429,0.12193564,0.07490887,0.2604
 0383,-0.11615470,-0.04121544,0.11270991,-0.01089783,-0.01002371,0.0257
 2311,0.00890265,0.00611323,-0.01375991,0.11622245,-0.04353986,-0.06305
 079,0.07577137,0.00336069,0.00497600,-0.00860088,0.00611323,0.00532883
 ,-0.00799680,0.04271788,0.07409243,0.11279935,0.07174717,-0.24960513,-
 0.00224706,-0.00139816,0.00242429,0.01375991,0.00799680,-0.01773003,-0
 .12193564,-0.07490887,0.26040383,-0.02530075,0.00168994,0.,0.00556207,
 0.01871937,0.,0.00192743,-0.00865194,0.00237656,0.00192743,-0.00865194
 ,-0.00237656,0.01588382,0.00162312,-0.11072234,0.,-0.00333378,-0.02094
 381,0.,0.00240805,-0.02134648,0.00343693,0.00240805,-0.02134648,-0.003
 43693,-0.00310543,0.17435911,0.,0.,-0.02532074,0.,0.,0.00034759,0.0027
 3748,-0.01573518,0.00450703,-0.00273748,0.01573518,0.00450703,0.,0.,0.
 01595908\\0.00000299,-0.00015551,0.,0.00001250,-0.00000598,0.,-0.00001
 485,0.00001152,-0.00001597,-0.00001485,0.00001152,0.00001597,0.0000142
 2,0.00013845,0.\\\@


 I WOULD TAKE COUNSEL OF MYSELF.
 I WOULD STOP AND LOOK WITHIN
 AND LOOKING WITHIN, LOOK BACK, ALSO
 THAT I MAY LOOK AHEAD WITH CLEARER UNDERSTANDING
 OF THE WAY I HAVE BEEN MOVING, AND IN WHAT DIRECTION.
 I NEED TO KNOW IF I AM GOING FORWARD OR RETREATING,
 WHETHER I HAVE BEEN WASTING, OR ENJOYING
 THE PRECIOUS MOMENTS OF LIFE.  THERE HAVE BEEN FRICTIONS,
 ANNOYANCES AND SOMETIMES WRATH,
 BUT WERE THEY BECAUSE I WAS RIGHT AND OTHERS WRONG.....
 HAVE I HAD MY THOUGHTS TOO SHARPLY FOCUSED
 ON THAT WHICH PLEASED ME, SERVED MY SELF-ESTEEM,
 UNDERGIRDED MY SECURITY,
 OF WHICH I DID NOT INQUIRE WHETHER IT SERVED OR HAMPERED OTHERS.....
 HAVE I BEEN TRYING TO STOP THE CLOCK
 TO HOLD THE WORLD
 IN PERPETUATION OF WHAT WAS AN IS ALREADY SLIPPING AWAY.....
 HAVE I BEEN CRITICAL OF OTHERS FOR WHAT REALLY NEEDED CHANGING IN ME...
 LET ME INDEED TAKE COUNSEL OF MYSELF
 AND SET MY DIRECTIONS STRAIGHT.

                          R.T. WESTON AS ADAPTED BY D. OSBORN 1967
 Job cpu time:  0 days  0 hours  1 minutes 35.6 seconds.
 File lengths (MBytes):  RWF=     11 Int=      0 D2E=      0 Chk=      4 Scr=      1
 Normal termination of Gaussian 03 at Fri Dec 14 16:31:15 2012.
