 Entering Gaussian System, Link 0=g09
 Input=h2o_freq.com
 Output=h2o_freq.log
 Initial command:
 /usr/local/g09/l1.exe /scratch/bjorn/Gau-6067.inp -scrdir=/scratch/bjorn/
 Entering Link 1 = /usr/local/g09/l1.exe PID=      6069.
  
 Copyright (c) 1988,1990,1992,1993,1995,1998,2003,2009, Gaussian, Inc.
                  All Rights Reserved.
  
 This is part of the Gaussian(R) 09 program.  It is based on
 the Gaussian(R) 03 system (copyright 2003, Gaussian, Inc.),
 the Gaussian(R) 98 system (copyright 1998, Gaussian, Inc.),
 the Gaussian(R) 94 system (copyright 1995, Gaussian, Inc.),
 the Gaussian 92(TM) system (copyright 1992, Gaussian, Inc.),
 the Gaussian 90(TM) system (copyright 1990, Gaussian, Inc.),
 the Gaussian 88(TM) system (copyright 1988, Gaussian, Inc.),
 the Gaussian 86(TM) system (copyright 1986, Carnegie Mellon
 University), and the Gaussian 82(TM) system (copyright 1983,
 Carnegie Mellon University). Gaussian is a federally registered
 trademark of Gaussian, Inc.
  
 This software contains proprietary and confidential information,
 including trade secrets, belonging to Gaussian, Inc.
  
 This software is provided under written license and may be
 used, copied, transmitted, or stored only in accord with that
 written license.
  
 The following legend is applicable only to US Government
 contracts under FAR:
  
                    RESTRICTED RIGHTS LEGEND
  
 Use, reproduction and disclosure by the US Government is
 subject to restrictions as set forth in subparagraphs (a)
 and (c) of the Commercial Computer Software - Restricted
 Rights clause in FAR 52.227-19.
  
 Gaussian, Inc.
 340 Quinnipiac St., Bldg. 40, Wallingford CT 06492
  
  
 ---------------------------------------------------------------
 Warning -- This program may not be used in any manner that
 competes with the business of Gaussian, Inc. or will provide
 assistance to any competitor of Gaussian, Inc.  The licensee
 of this program is prohibited from giving any competitor of
 Gaussian, Inc. access to this program.  By using this program,
 the user acknowledges that Gaussian, Inc. is engaged in the
 business of creating and licensing software in the field of
 computational chemistry and represents and warrants to the
 licensee that it is not a competitor of Gaussian, Inc. and that
 it will not use this program in any manner prohibited above.
 ---------------------------------------------------------------
  

 Cite this work as:
 Gaussian 09, Revision A.02,
 M. J. Frisch, G. W. Trucks, H. B. Schlegel, G. E. Scuseria, 
 M. A. Robb, J. R. Cheeseman, G. Scalmani, V. Barone, B. Mennucci, 
 G. A. Petersson, H. Nakatsuji, M. Caricato, X. Li, H. P. Hratchian, 
 A. F. Izmaylov, J. Bloino, G. Zheng, J. L. Sonnenberg, M. Hada, 
 M. Ehara, K. Toyota, R. Fukuda, J. Hasegawa, M. Ishida, T. Nakajima, 
 Y. Honda, O. Kitao, H. Nakai, T. Vreven, J. A. Montgomery, Jr., 
 J. E. Peralta, F. Ogliaro, M. Bearpark, J. J. Heyd, E. Brothers, 
 K. N. Kudin, V. N. Staroverov, R. Kobayashi, J. Normand, 
 K. Raghavachari, A. Rendell, J. C. Burant, S. S. Iyengar, J. Tomasi, 
 M. Cossi, N. Rega, J. M. Millam, M. Klene, J. E. Knox, J. B. Cross, 
 V. Bakken, C. Adamo, J. Jaramillo, R. Gomperts, R. E. Stratmann, 
 O. Yazyev, A. J. Austin, R. Cammi, C. Pomelli, J. W. Ochterski, 
 R. L. Martin, K. Morokuma, V. G. Zakrzewski, G. A. Voth, 
 P. Salvador, J. J. Dannenberg, S. Dapprich, A. D. Daniels, 
 O. Farkas, J. B. Foresman, J. V. Ortiz, J. Cioslowski, 
 and D. J. Fox, Gaussian, Inc., Wallingford CT, 2009.
 
 ******************************************
 Gaussian 09:  EM64L-G09RevA.02 11-Jun-2009
                 7-Jan-2013 
 ******************************************
 ------------------
 #freq b3lyp/6-31G*
 ------------------
 1/10=4,30=1,38=1/1,3;
 2/12=2,17=6,18=5,40=1/2;
 3/5=1,6=6,7=1,11=2,16=1,25=1,30=1,71=2,74=-5/1,2,3;
 4//1;
 5/5=2,38=5,98=1/2;
 8/6=4,10=90,11=11/1;
 11/6=1,8=1,9=11,15=111,16=1/1,2,10;
 10/6=1/2;
 6/7=2,8=2,9=2,10=2,18=1,28=1/1;
 7/8=1,10=1,25=1/1,2,3,16;
 1/10=4,30=1/3;
 99//99;
 ------------------------------
 test. CONTINUING FROM: h2o.log
 ------------------------------
 Symbolic Z-matrix:
 Charge =  0 Multiplicity = 1
 O                     0.        0.        0.11992 
 H                     0.        0.76122  -0.47969 
 H                     0.       -0.76122  -0.47969 
 

 GradGradGradGradGradGradGradGradGradGradGradGradGradGradGradGradGradGrad
 Berny optimization.
 Initialization pass.
 Trust Radius=3.00D-01 FncErr=1.00D-07 GrdErr=1.00D-07
 Number of steps in this run=   2 maximum allowed number of steps=   2.
 GradGradGradGradGradGradGradGradGradGradGradGradGradGradGradGradGradGrad

                          Input orientation:                          
 ---------------------------------------------------------------------
 Center     Atomic      Atomic             Coordinates (Angstroms)
 Number     Number       Type             X           Y           Z
 ---------------------------------------------------------------------
      1          8           0        0.000000    0.000000    0.119922
      2          1           0        0.000000    0.761221   -0.479690
      3          1           0        0.000000   -0.761221   -0.479690
 ---------------------------------------------------------------------
                    Distance matrix (angstroms):
                    1          2          3
     1  O    0.000000
     2  H    0.969016   0.000000
     3  H    0.969016   1.522442   0.000000
 Stoichiometry    H2O
 Framework group  C2V[C2(O),SGV(H2)]
 Deg. of freedom     2
 Full point group                 C2V     NOp   4
 Largest Abelian subgroup         C2V     NOp   4
 Largest concise Abelian subgroup C2      NOp   2
                         Standard orientation:                         
 ---------------------------------------------------------------------
 Center     Atomic      Atomic             Coordinates (Angstroms)
 Number     Number       Type             X           Y           Z
 ---------------------------------------------------------------------
      1          8           0        0.000000   -0.000000    0.119922
      2          1           0        0.000000    0.761221   -0.479690
      3          1           0       -0.000000   -0.761221   -0.479690
 ---------------------------------------------------------------------
 Rotational constants (GHZ):    785.2479822    432.6936638    278.9721721
 Standard basis: 6-31G(d) (6D, 7F)
 There are    10 symmetry adapted basis functions of A1  symmetry.
 There are     1 symmetry adapted basis functions of A2  symmetry.
 There are     3 symmetry adapted basis functions of B1  symmetry.
 There are     5 symmetry adapted basis functions of B2  symmetry.
 Integral buffers will be    131072 words long.
 Raffenetti 2 integral format.
 Two-electron integral symmetry is turned on.
    19 basis functions,    36 primitive gaussians,    19 cartesian basis functions
     5 alpha electrons        5 beta electrons
       nuclear repulsion energy         9.0851445897 Hartrees.
 NAtoms=    3 NActive=    3 NUniq=    2 SFac= 1.69D+00 NAtFMM=   80 NAOKFM=F Big=F
 One-electron integrals computed using PRISM.
 NBasis=    19 RedAO= T  NBF=    10     1     3     5
 NBsUse=    19 1.00D-06 NBFU=    10     1     3     5
 Harris functional with IExCor=  402 diagonalized for initial guess.
 ExpMin= 1.61D-01 ExpMax= 5.48D+03 ExpMxC= 8.25D+02 IAcc=1 IRadAn=         1 AccDes= 0.00D+00
 HarFok:  IExCor=  402 AccDes= 0.00D+00 IRadAn=         1 IDoV= 1
 ScaDFX=  1.000000  1.000000  1.000000  1.000000
 FoFCou: FMM=F IPFlag=           0 FMFlag=      100000 FMFlg1=           0
         NFxFlg=           0 DoJE=T BraDBF=F KetDBF=T FulRan=T
         Omega=  0.000000  0.000000  1.000000  0.000000  0.000000 ICntrl=     500 IOpCl=  0
         NMat0=    1 NMatS0=    1 NMatT0=    0 NMatD0=    1 NMtDS0=    0 NMtDT0=    0
         I1Cent=           4 NGrid=           0.
 Petite list used in FoFCou.
 Initial guess orbital symmetries:
       Occupied  (A1) (A1) (B2) (A1) (B1)
       Virtual   (A1) (B2) (B2) (A1) (B1) (A1) (B2) (A1) (A1) (A2)
                 (B1) (A1) (B2) (A1)
 The electronic state of the initial guess is 1-A1.
 Requested convergence on RMS density matrix=1.00D-08 within 128 cycles.
 Requested convergence on MAX density matrix=1.00D-06.
 Requested convergence on             energy=1.00D-06.
 No special actions if energy rises.
 Keep R1 ints in memory in canonical form, NReq=920381.
 Integral accuracy reduced to 1.0D-05 until final iterations.
 Initial convergence to 1.0D-05 achieved.  Increase integral accuracy.
 SCF Done:  E(RB3LYP) =  -76.4089529594     A.U. after    9 cycles
             Convg  =    0.6381D-08             -V/T =  2.0078
 Range of M.O.s used for correlation:     1    19
 NBasis=    19 NAE=     5 NBE=     5 NFC=     0 NFV=     0
 NROrb=     19 NOA=     5 NOB=     5 NVA=    14 NVB=    14
 Symmetrizing basis deriv contribution to polar:
 IMax=3 JMax=2 DiffMx= 0.00D+00
 G2DrvN: will do     4 centers at a time, making    1 passes doing MaxLOS=2.
 Calling FoFCou, ICntrl=  3107 FMM=F I1Cent=   0 AccDes= 0.00D+00.
 FoFDir/FoFCou used for L=0 through L=2.
 End of G2Drv Frequency-dependent properties file   721 does not exist.
 End of G2Drv Frequency-dependent properties file   722 does not exist.
          IDoAtm=111
          Differentiating once with respect to electric field.
                with respect to dipole field.
          Differentiating once with respect to nuclear coordinates.
          Keep R1 ints in memory in canonical form, NReq=839289.
          There are     9 degrees of freedom in the 1st order CPHF.  IDoFFX=4.
      9 vectors produced by pass  0 Test12= 7.78D-16 1.11D-08 XBig12= 3.33D+00 1.28D+00.
 AX will form     9 AO Fock derivatives at one time.
      9 vectors produced by pass  1 Test12= 7.78D-16 1.11D-08 XBig12= 3.40D-01 2.92D-01.
      9 vectors produced by pass  2 Test12= 7.78D-16 1.11D-08 XBig12= 2.96D-03 2.76D-02.
      9 vectors produced by pass  3 Test12= 7.78D-16 1.11D-08 XBig12= 2.74D-06 8.52D-04.
      7 vectors produced by pass  4 Test12= 7.78D-16 1.11D-08 XBig12= 1.06D-09 1.64D-05.
      2 vectors produced by pass  5 Test12= 7.78D-16 1.11D-08 XBig12= 2.78D-13 1.96D-07.
 Inverted reduced A of dimension    45 with in-core refinement.
 Isotropic polarizability for W=    0.000000        5.22 Bohr**3.
 End of Minotr Frequency-dependent properties file   721 does not exist.
 End of Minotr Frequency-dependent properties file   722 does not exist.

 **********************************************************************

            Population analysis using the SCF density.

 **********************************************************************

 Orbital symmetries:
       Occupied  (A1) (A1) (B2) (A1) (B1)
       Virtual   (A1) (B2) (B2) (A1) (B1) (A1) (B2) (A1) (A1) (A2)
                 (B1) (A1) (B2) (A1)
 The electronic state is 1-A1.
 Alpha  occ. eigenvalues --  -19.13828  -0.99785  -0.51684  -0.37242  -0.29121
 Alpha virt. eigenvalues --    0.06250   0.14799   0.77193   0.86093   0.89076
 Alpha virt. eigenvalues --    0.89516   1.06562   1.19379   1.72885   1.74652
 Alpha virt. eigenvalues --    1.77972   2.28021   2.57642   3.55156
          Condensed to atoms (all electrons):
              1          2          3
     1  O    8.289157   0.242453   0.242453
     2  H    0.242453   0.393967  -0.023452
     3  H    0.242453  -0.023452   0.393967
 Mulliken atomic charges:
              1
     1  O   -0.774063
     2  H    0.387031
     3  H    0.387031
 Sum of Mulliken atomic charges =   0.00000
 Mulliken charges with hydrogens summed into heavy atoms:
              1
     1  O    0.000000
 Sum of Mulliken charges with hydrogens summed into heavy atoms =   0.00000
 APT atomic charges:
              1
     1  O   -0.490520
     2  H    0.245260
     3  H    0.245260
 Sum of APT charges=  -0.00000
 APT Atomic charges with hydrogens summed into heavy atoms:
              1
     1  O   -0.000000
     2  H    0.000000
     3  H    0.000000
 Sum of APT charges=  -0.00000
 Electronic spatial extent (au):  <R**2>=             19.1907
 Charge=              0.0000 electrons
 Dipole moment (field-independent basis, Debye):
    X=             -0.0000    Y=              0.0000    Z=             -2.0971  Tot=              2.0971
 Quadrupole moment (field-independent basis, Debye-Ang):
   XX=             -7.2045   YY=             -4.2910   ZZ=             -5.9872
   XY=              0.0000   XZ=              0.0000   YZ=              0.0000
 Traceless Quadrupole moment (field-independent basis, Debye-Ang):
   XX=             -1.3769   YY=              1.5366   ZZ=             -0.1596
   XY=              0.0000   XZ=              0.0000   YZ=              0.0000
 Octapole moment (field-independent basis, Debye-Ang**2):
  XXX=              0.0000  YYY=             -0.0000  ZZZ=             -1.2186  XYY=             -0.0000
  XXY=             -0.0000  XXZ=             -0.3236  XZZ=             -0.0000  YZZ=             -0.0000
  YYZ=             -1.2129  XYZ=             -0.0000
 Hexadecapole moment (field-independent basis, Debye-Ang**3):
 XXXX=             -5.2150 YYYY=             -6.0668 ZZZZ=             -6.2987 XXXY=             -0.0000
 XXXZ=             -0.0000 YYYX=             -0.0000 YYYZ=              0.0000 ZZZX=             -0.0000
 ZZZY=              0.0000 XXYY=             -2.1179 XXZZ=             -1.9691 YYZZ=             -1.7419
 XXYZ=             -0.0000 YYXZ=              0.0000 ZZXY=              0.0000
 N-N= 9.085144589726D+00 E-N=-1.987499280452D+02  KE= 7.581876596751D+01
 Symmetry A1   KE= 6.765848912223D+01
 Symmetry A2   KE= 4.937704895874D-35
 Symmetry B1   KE= 4.600113221773D+00
 Symmetry B2   KE= 3.560163623507D+00
  Exact polarizability:   2.830   0.000   7.397   0.000  -0.000   5.432
 Approx polarizability:   3.081   0.000   8.974   0.000  -0.000   6.770
 Calling FoFJK, ICntrl=    100127 FMM=F ISym2X=1 I1Cent= 0 IOpClX= 0 NMat=1 NMatS=1 NMatT=0.
 Full mass-weighted force constant matrix:
 Low frequencies ---  -36.7735    0.0019    0.0021    0.0023   55.4055   68.1695
 Low frequencies --- 1714.7342 3724.2054 3845.4123
 Diagonal vibrational polarizability:
        0.0000000       0.0347807       0.6946825
 Harmonic frequencies (cm**-1), IR intensities (KM/Mole), Raman scattering
 activities (A**4/AMU), depolarization ratios for plane and unpolarized
 incident light, reduced masses (AMU), force constants (mDyne/A),
 and normal coordinates:
                     1                      2                      3
                    A1                     A1                     B2
 Frequencies --  1714.7342              3724.2054              3845.4123
 Red. masses --     1.0824                 1.0454                 1.0809
 Frc consts  --     1.8752                 8.5428                 9.4172
 IR Inten    --    75.5475                 1.6672                19.1113
  Atom  AN      X      Y      Z        X      Y      Z        X      Y      Z
     1   8     0.00  -0.00   0.07     0.00  -0.00   0.05     0.00   0.07   0.00
     2   1    -0.00  -0.43  -0.56     0.00   0.58  -0.40    -0.00  -0.55   0.44
     3   1    -0.00   0.43  -0.56    -0.00  -0.58  -0.40    -0.00  -0.55  -0.44

 -------------------
 - Thermochemistry -
 -------------------
 Temperature   298.150 Kelvin.  Pressure   1.00000 Atm.
 Atom     1 has atomic number  8 and mass  15.99491
 Atom     2 has atomic number  1 and mass   1.00783
 Atom     3 has atomic number  1 and mass   1.00783
 Molecular mass:    18.01056 amu.
 Principal axes and moments of inertia in atomic units:
                           1         2         3
     Eigenvalues --     2.29831   4.17094   6.46925
           X           -0.00000   0.00000   1.00000
           Y            1.00000   0.00000   0.00000
           Z            0.00000   1.00000   0.00000
 This molecule is an asymmetric top.
 Rotational symmetry number  2.
 Rotational temperatures (Kelvin)     37.68591    20.76600    13.38854
 Rotational constants (GHZ):         785.24798   432.69366   278.97217
 Zero-point vibrational energy      55532.8 (Joules/Mol)
                                   13.27265 (Kcal/Mol)
 Vibrational temperatures:   2467.12  5358.29  5532.68
          (Kelvin)
 
 Zero-point correction=                           0.021151 (Hartree/Particle)
 Thermal correction to Energy=                    0.023986
 Thermal correction to Enthalpy=                  0.024930
 Thermal correction to Gibbs Free Energy=         0.003483
 Sum of electronic and zero-point Energies=            -76.387802
 Sum of electronic and thermal Energies=               -76.384967
 Sum of electronic and thermal Enthalpies=             -76.384023
 Sum of electronic and thermal Free Energies=          -76.405470
 
                     E (Thermal)             CV                S
                      KCal/Mol        Cal/Mol-Kelvin    Cal/Mol-Kelvin
 Total                   15.051              5.996             45.139
 Electronic               0.000              0.000              0.000
 Translational            0.889              2.981             34.608
 Rotational               0.889              2.981             10.526
 Vibrational             13.274              0.035              0.005
                       Q            Log10(Q)             Ln(Q)
 Total Bot       0.250043D-01         -1.601985         -3.688706
 Total V=0       0.133943D+09          8.126922         18.712929
 Vib (Bot)       0.186726D-09         -9.728796        -22.401380
 Vib (V=0)       0.100025D+01          0.000111          0.000255
 Electronic      0.100000D+01          0.000000          0.000000
 Translational   0.300432D+07          6.477746         14.915562
 Rotational      0.445723D+02          1.649065          3.797112
 ***** Axes restored to original set *****
 -------------------------------------------------------------------
 Center     Atomic                   Forces (Hartrees/Bohr)
 Number     Number              X              Y              Z
 -------------------------------------------------------------------
      1        8          -0.000000000    0.000000000   -0.000506469
      2        1          -0.000000000   -0.000058080    0.000253235
      3        1           0.000000000    0.000058080    0.000253235
 -------------------------------------------------------------------
 Cartesian Forces:  Max     0.000506469 RMS     0.000208570

 GradGradGradGradGradGradGradGradGradGradGradGradGradGradGradGradGradGrad
 Berny optimization.
 Search for a local minimum.
 Step number   1 out of a maximum of    2
 All quantities printed in internal units (Hartrees-Bohrs-Radians)
 Second derivative matrix not updated -- analytic derivatives used.
 The second derivative matrix:
                          X1        Y1        Z1        X2        Y2
           X1           0.00031
           Y1          -0.00000   0.64598
           Z1          -0.00000   0.00000   0.45299
           X2          -0.00016   0.00000  -0.00000   0.00005
           Y2           0.00000  -0.32299   0.18645  -0.00000   0.35454
           Z2          -0.00000   0.25430  -0.22650   0.00000  -0.22038
           X3          -0.00016   0.00000   0.00000   0.00010  -0.00000
           Y3           0.00000  -0.32299  -0.18645  -0.00000  -0.03155
           Z3           0.00000  -0.25430  -0.22650  -0.00000   0.03392
                          Z2        X3        Y3        Z3
           Z2           0.21345
           X3           0.00000   0.00005
           Y3          -0.03392  -0.00000   0.35454
           Z3           0.01305  -0.00000   0.22038   0.21345
     Eigenvalues ---    0.16366   0.75048   0.93534
 Angle between quadratic step and forces=  46.95 degrees.
 ClnCor:  largest displacement from symmetrization is 6.80D-15 for atom     3.
 Linear search not attempted -- first point.
 ClnCor:  largest displacement from symmetrization is 1.16D-31 for atom     1.
 TrRot= -0.000000 -0.000000 -0.000417  0.000000  0.000000  0.000000
 Variable       Old X    -DE/DX   Delta X   Delta X   Delta X     New X
                                 (Linear)    (Quad)   (Total)
    X1        0.00000  -0.00000   0.00000  -0.00000  -0.00000   0.00000
    Y1        0.00000   0.00000   0.00000  -0.00000  -0.00000   0.00000
    Z1        0.22662  -0.00051   0.00000  -0.00068  -0.00110   0.22552
    X2        0.00000  -0.00000   0.00000   0.00000   0.00000   0.00000
    Y2        1.43850  -0.00006   0.00000   0.00065   0.00065   1.43915
    Z2       -0.90648   0.00025   0.00000   0.00097   0.00055  -0.90593
    X3       -0.00000   0.00000   0.00000  -0.00000  -0.00000  -0.00000
    Y3       -1.43850   0.00006   0.00000  -0.00065  -0.00065  -1.43915
    Z3       -0.90648   0.00025   0.00000   0.00097   0.00055  -0.90593
         Item               Value     Threshold  Converged?
 Maximum Force            0.000506     0.000450     NO 
 RMS     Force            0.000209     0.000300     YES
 Maximum Displacement     0.001100     0.001800     YES
 RMS     Displacement     0.000543     0.001200     YES
 Predicted change in Energy=-3.803591D-07
 GradGradGradGradGradGradGradGradGradGradGradGradGradGradGradGradGradGrad

 1\1\GINC-URANIA\Freq\RB3LYP\6-31G(d)\H2O1\BJORN\07-Jan-2013\0\\#freq b
 3lyp/6-31G*\\test. CONTINUING FROM: h2o.log\\0,1\O,0.,0.,0.119922\H,0.
 ,0.761221,-0.47969\H,0.,-0.761221,-0.47969\\Version=EM64L-G09RevA.02\S
 tate=1-A1\HF=-76.408953\RMSD=6.381e-09\RMSF=2.086e-04\ZeroPoint=0.0211
 513\Thermal=0.0239859\Dipole=0.,0.,-0.8250554\DipoleDeriv=-0.7281416,0
 .,0.,0.,-0.4090867,0.,0.,0.,-0.3343315,0.3640708,0.,0.,0.,0.2045434,0.
 0919028,0.,0.1256442,0.1671657,0.3640708,0.,0.,0.,0.2045434,-0.0919028
 ,0.,-0.1256442,0.1671657\Polar=2.8296822,0.,7.3972995,0.,0.,5.4323247\
 PG=C02V [C2(O1),SGV(H2)]\NImag=0\\0.00031480,0.,0.64597934,0.,0.,0.452
 99203,-0.00015740,0.,0.,0.00005291,0.,-0.32298967,0.18645360,0.,0.3545
 3955,0.,0.25430201,-0.22649602,0.,-0.22037781,0.21344959,-0.00015740,0
 .,0.,0.00010449,0.,0.,0.00005291,0.,-0.32298967,-0.18645360,0.,-0.0315
 4989,-0.03392421,0.,0.35453955,0.,-0.25430201,-0.22649602,0.,0.0339242
 1,0.01304642,0.,0.22037781,0.21344959\\0.,0.,0.00050647,0.,0.00005808,
 -0.00025323,0.,-0.00005808,-0.00025323\\\@


 The arm of the moral universe is long, but it bends toward justice.
 -- Martin Luther King, Jr.
 Job cpu time:  0 days  0 hours  0 minutes  0.9 seconds.
 File lengths (MBytes):  RWF=      5 Int=      0 D2E=      0 Chk=      1 Scr=      1
 Normal termination of Gaussian 09 at Mon Jan  7 14:24:41 2013.
